# vtk DataFile Version 2.0
Grille
ASCII
DATASET POLYDATA
POINTS 481 float
0.000000E+00 8.750000E-01 -6.585220E-01
6.250000E-02 8.750000E-01 -6.458687E-01
1.250000E-01 8.750000E-01 -6.083950E-01
1.250000E-01 9.375000E-01 -6.458687E-01
1.250000E-01 1.000000E+00 -6.585220E-01
6.250000E-02 1.000000E+00 -6.990833E-01
0.000000E+00 1.000000E+00 -7.127791E-01
0.000000E+00 9.375000E-01 -6.990833E-01
3.750000E-02 9.125000E-01 -6.812628E-01
8.125000E-02 9.187500E-01 -6.673380E-01
8.750000E-02 9.625000E-01 -6.812628E-01
4.375000E-02 9.562500E-01 -6.993986E-01
1.875000E-01 8.750000E-01 -5.475411E-01
2.500000E-01 8.750000E-01 -4.656454E-01
2.500000E-01 9.375000E-01 -4.943265E-01
2.500000E-01 1.000000E+00 -5.040109E-01
1.875000E-01 1.000000E+00 -5.926542E-01
1.625000E-01 9.125000E-01 -5.985480E-01
2.062500E-01 9.187500E-01 -5.498996E-01
2.125000E-01 9.625000E-01 -5.558775E-01
1.687500E-01 9.562500E-01 -6.091398E-01
0.000000E+00 7.500000E-01 -5.040109E-01
6.250000E-02 7.500000E-01 -4.943265E-01
1.250000E-01 7.500000E-01 -4.656454E-01
1.250000E-01 8.125000E-01 -5.475411E-01
0.000000E+00 8.125000E-01 -5.926542E-01
3.750000E-02 7.875000E-01 -5.558775E-01
8.125000E-02 7.937500E-01 -5.498996E-01
8.750000E-02 8.375000E-01 -5.985480E-01
4.375000E-02 8.312500E-01 -6.091398E-01
1.875000E-01 7.500000E-01 -4.190698E-01
2.500000E-01 7.500000E-01 -3.563896E-01
2.500000E-01 8.125000E-01 -4.190698E-01
1.625000E-01 7.875000E-01 -4.883862E-01
2.062500E-01 7.937500E-01 -4.531281E-01
2.125000E-01 8.375000E-01 -4.883862E-01
1.687500E-01 8.312500E-01 -5.305291E-01
3.125000E-01 8.750000E-01 -3.658552E-01
3.750000E-01 8.750000E-01 -2.520055E-01
3.750000E-01 9.375000E-01 -2.675276E-01
3.750000E-01 1.000000E+00 -2.727688E-01
3.125000E-01 1.000000E+00 -3.959989E-01
2.875000E-01 9.125000E-01 -4.247096E-01
3.312500E-01 9.187500E-01 -3.487440E-01
3.375000E-01 9.625000E-01 -3.458649E-01
2.937500E-01 9.562500E-01 -4.261450E-01
4.375000E-01 8.750000E-01 -1.284713E-01
5.000000E-01 8.750000E-01 -4.032285E-17
5.000000E-01 9.375000E-01 -4.280650E-17
5.000000E-01 1.000000E+00 -4.364513E-17
4.375000E-01 1.000000E+00 -1.390563E-01
4.125000E-01 9.125000E-01 -1.862130E-01
4.562500E-01 9.187500E-01 -9.449528E-02
4.625000E-01 9.625000E-01 -8.319749E-02
4.187500E-01 9.562500E-01 -1.782735E-01
3.125000E-01 7.500000E-01 -2.800135E-01
3.750000E-01 7.500000E-01 -1.928766E-01
3.750000E-01 8.125000E-01 -2.267989E-01
2.875000E-01 7.875000E-01 -3.465425E-01
3.312500E-01 7.937500E-01 -2.873719E-01
3.375000E-01 8.375000E-01 -3.038721E-01
2.937500E-01 8.312500E-01 -3.711501E-01
4.375000E-01 7.500000E-01 -9.832766E-02
5.000000E-01 7.500000E-01 -3.086177E-17
5.000000E-01 8.125000E-01 -3.628960E-17
4.125000E-01 7.875000E-01 -1.519408E-01
4.562500E-01 7.937500E-01 -7.786596E-02
4.625000E-01 8.375000E-01 -7.309615E-02
4.187500E-01 8.312500E-01 -1.552669E-01
0.000000E+00 6.250000E-01 -2.727688E-01
6.250000E-02 6.250000E-01 -2.675276E-01
1.250000E-01 6.250000E-01 -2.520055E-01
1.250000E-01 6.875000E-01 -3.658552E-01
0.000000E+00 6.875000E-01 -3.959989E-01
3.750000E-02 6.625000E-01 -3.458649E-01
8.125000E-02 6.687500E-01 -3.487440E-01
8.750000E-02 7.125000E-01 -4.247096E-01
4.375000E-02 7.062500E-01 -4.261450E-01
1.875000E-01 6.250000E-01 -2.267989E-01
2.500000E-01 6.250000E-01 -1.928766E-01
2.500000E-01 6.875000E-01 -2.800135E-01
1.625000E-01 6.625000E-01 -3.038721E-01
2.062500E-01 6.687500E-01 -2.873719E-01
2.125000E-01 7.125000E-01 -3.465425E-01
1.687500E-01 7.062500E-01 -3.711501E-01
0.000000E+00 5.000000E-01 4.364513E-17
6.250000E-02 5.000000E-01 4.280650E-17
1.250000E-01 5.000000E-01 4.032285E-17
1.250000E-01 5.625000E-01 -1.284713E-01
0.000000E+00 5.625000E-01 -1.390563E-01
3.750000E-02 5.375000E-01 -8.319749E-02
8.125000E-02 5.437500E-01 -9.449528E-02
8.750000E-02 5.875000E-01 -1.862130E-01
4.375000E-02 5.812500E-01 -1.782735E-01
1.875000E-01 5.000000E-01 3.628960E-17
2.500000E-01 5.000000E-01 3.086177E-17
2.500000E-01 5.625000E-01 -9.832766E-02
1.625000E-01 5.375000E-01 -7.309615E-02
2.062500E-01 5.437500E-01 -7.786596E-02
2.125000E-01 5.875000E-01 -1.519408E-01
1.687500E-01 5.812500E-01 -1.552669E-01
3.125000E-01 6.250000E-01 -1.515422E-01
3.750000E-01 6.250000E-01 -1.043841E-01
3.750000E-01 6.875000E-01 -1.515422E-01
2.875000E-01 6.625000E-01 -2.156174E-01
3.312500E-01 6.687500E-01 -1.822500E-01
3.375000E-01 7.125000E-01 -2.156174E-01
2.937500E-01 7.062500E-01 -2.596510E-01
4.375000E-01 6.250000E-01 -5.321454E-02
5.000000E-01 6.250000E-01 -1.670227E-17
5.000000E-01 6.875000E-01 -2.424794E-17
4.125000E-01 6.625000E-01 -9.453701E-02
4.562500E-01 6.687500E-01 -4.938226E-02
4.625000E-01 7.125000E-01 -5.186658E-02
4.187500E-01 7.062500E-01 -1.086224E-01
3.125000E-01 5.000000E-01 2.424794E-17
3.750000E-01 5.000000E-01 1.670227E-17
3.750000E-01 5.625000E-01 -5.321454E-02
2.875000E-01 5.375000E-01 -5.186658E-02
3.312500E-01 5.437500E-01 -4.938226E-02
3.375000E-01 5.875000E-01 -9.453701E-02
2.937500E-01 5.812500E-01 -1.086224E-01
4.375000E-01 5.000000E-01 8.514743E-18
5.000000E-01 5.000000E-01 2.672494E-33
5.000000E-01 5.625000E-01 -8.514743E-18
4.125000E-01 5.375000E-01 -2.274079E-02
4.562500E-01 5.437500E-01 -1.338056E-02
4.625000E-01 5.875000E-01 -2.274079E-02
4.187500E-01 5.812500E-01 -4.544109E-02
5.625000E-01 8.750000E-01 1.284713E-01
6.250000E-01 8.750000E-01 2.520055E-01
6.250000E-01 9.375000E-01 2.675276E-01
6.250000E-01 1.000000E+00 2.727688E-01
5.625000E-01 1.000000E+00 1.390563E-01
5.375000E-01 9.125000E-01 8.063277E-02
5.812500E-01 9.187500E-01 1.741395E-01
5.875000E-01 9.625000E-01 1.921360E-01
5.437500E-01 9.562500E-01 9.673854E-02
6.875000E-01 8.750000E-01 3.658552E-01
7.500000E-01 8.750000E-01 4.656454E-01
7.500000E-01 9.375000E-01 4.943265E-01
7.500000E-01 1.000000E+00 5.040109E-01
6.875000E-01 1.000000E+00 3.959989E-01
6.625000E-01 9.125000E-01 3.352030E-01
7.062500E-01 9.187500E-01 4.162631E-01
7.125000E-01 9.625000E-01 4.382185E-01
6.687500E-01 9.562500E-01 3.570230E-01
5.625000E-01 7.500000E-01 9.832766E-02
6.250000E-01 7.500000E-01 1.928766E-01
6.250000E-01 8.125000E-01 2.267989E-01
5.375000E-01 7.875000E-01 6.579244E-02
5.812500E-01 7.937500E-01 1.434944E-01
5.875000E-01 8.375000E-01 1.688080E-01
5.437500E-01 8.312500E-01 8.425424E-02
6.875000E-01 7.500000E-01 2.800135E-01
7.500000E-01 7.500000E-01 3.563896E-01
7.500000E-01 8.125000E-01 4.190698E-01
6.625000E-01 7.875000E-01 2.735094E-01
7.062500E-01 7.937500E-01 3.430090E-01
7.125000E-01 8.375000E-01 3.850126E-01
6.687500E-01 8.312500E-01 3.109485E-01
8.125000E-01 8.750000E-01 5.475411E-01
8.750000E-01 8.750000E-01 6.083950E-01
8.750000E-01 9.375000E-01 6.458687E-01
8.750000E-01 1.000000E+00 6.585220E-01
8.125000E-01 1.000000E+00 5.926542E-01
7.875000E-01 9.125000E-01 5.387415E-01
8.312500E-01 9.187500E-01 5.950145E-01
8.375000E-01 9.625000E-01 6.175862E-01
7.937500E-01 9.562500E-01 5.629539E-01
9.375000E-01 8.750000E-01 6.458687E-01
1.000000E+00 8.750000E-01 6.585220E-01
1.000000E+00 9.375000E-01 6.990833E-01
1.000000E+00 1.000000E+00 7.127791E-01
9.375000E-01 1.000000E+00 6.990833E-01
9.125000E-01 9.125000E-01 6.602616E-01
9.562500E-01 9.187500E-01 6.831802E-01
9.625000E-01 9.625000E-01 7.029320E-01
9.187500E-01 9.562500E-01 6.831802E-01
8.125000E-01 7.500000E-01 4.190698E-01
8.750000E-01 7.500000E-01 4.656454E-01
8.750000E-01 8.125000E-01 5.475411E-01
7.875000E-01 7.875000E-01 4.395870E-01
8.312500E-01 7.937500E-01 4.903036E-01
8.375000E-01 8.375000E-01 5.426026E-01
7.937500E-01 8.312500E-01 4.903036E-01
9.375000E-01 7.500000E-01 4.943265E-01
1.000000E+00 7.500000E-01 5.040109E-01
1.000000E+00 8.125000E-01 5.926542E-01
9.125000E-01 7.875000E-01 5.387415E-01
9.562500E-01 7.937500E-01 5.629539E-01
9.625000E-01 8.375000E-01 6.175862E-01
9.187500E-01 8.312500E-01 5.950145E-01
5.625000E-01 6.250000E-01 5.321454E-02
6.250000E-01 6.250000E-01 1.043841E-01
6.250000E-01 6.875000E-01 1.515422E-01
5.375000E-01 6.625000E-01 4.093581E-02
5.812500E-01 6.687500E-01 9.100352E-02
5.875000E-01 7.125000E-01 1.197805E-01
5.437500E-01 7.062500E-01 5.894299E-02
6.875000E-01 6.250000E-01 1.515422E-01
7.500000E-01 6.250000E-01 1.928766E-01
7.500000E-01 6.875000E-01 2.800135E-01
6.625000E-01 6.625000E-01 1.701765E-01
7.062500E-01 6.687500E-01 2.175348E-01
7.125000E-01 7.125000E-01 2.731921E-01
6.687500E-01 7.062500E-01 2.175348E-01
5.625000E-01 5.000000E-01 -8.514743E-18
6.250000E-01 5.000000E-01 -1.670227E-17
6.250000E-01 5.625000E-01 5.321454E-02
5.375000E-01 5.375000E-01 9.847072E-03
5.812500E-01 5.437500E-01 2.465821E-02
5.875000E-01 5.875000E-01 5.251751E-02
5.437500E-01 5.812500E-01 2.465821E-02
6.875000E-01 5.000000E-01 -2.424794E-17
7.500000E-01 5.000000E-01 -3.086177E-17
7.500000E-01 5.625000E-01 9.832766E-02
6.625000E-01 5.375000E-01 4.093581E-02
7.062500E-01 5.437500E-01 5.894299E-02
7.125000E-01 5.875000E-01 1.197805E-01
6.687500E-01 5.812500E-01 9.100352E-02
8.125000E-01 6.250000E-01 2.267989E-01
8.750000E-01 6.250000E-01 2.520055E-01
8.750000E-01 6.875000E-01 3.658552E-01
7.875000E-01 6.625000E-01 2.735094E-01
8.312500E-01 6.687500E-01 3.109485E-01
8.375000E-01 7.125000E-01 3.850126E-01
7.937500E-01 7.062500E-01 3.430090E-01
9.375000E-01 6.250000E-01 2.675276E-01
1.000000E+00 6.250000E-01 2.727688E-01
1.000000E+00 6.875000E-01 3.959989E-01
9.125000E-01 6.625000E-01 3.352030E-01
9.562500E-01 6.687500E-01 3.570230E-01
9.625000E-01 7.125000E-01 4.382185E-01
9.187500E-01 7.062500E-01 4.162631E-01
8.125000E-01 5.000000E-01 -3.628960E-17
8.750000E-01 5.000000E-01 -4.032285E-17
8.750000E-01 5.625000E-01 1.284713E-01
7.875000E-01 5.375000E-01 6.579244E-02
8.312500E-01 5.437500E-01 8.425424E-02
8.375000E-01 5.875000E-01 1.688080E-01
7.937500E-01 5.812500E-01 1.434944E-01
9.375000E-01 5.000000E-01 -4.280650E-17
1.000000E+00 5.000000E-01 -4.364513E-17
1.000000E+00 5.625000E-01 1.390563E-01
9.125000E-01 5.375000E-01 8.063277E-02
9.562500E-01 5.437500E-01 9.673854E-02
9.625000E-01 5.875000E-01 1.921360E-01
9.187500E-01 5.812500E-01 1.741395E-01
0.000000E+00 3.750000E-01 2.727688E-01
6.250000E-02 3.750000E-01 2.675276E-01
[...]
CELL_DATA 896
SCALARS sol float 1
LOOKUP_TABLE default
-6.618845E-01
-6.648232E-01
-6.796227E-01
-6.378435E-01
-6.826665E-01
-6.405339E-01
-6.932482E-01
-6.201053E-01
-6.178521E-01
-6.826665E-01
-6.405339E-01
-6.176039E-01
-7.037536E-01
-5.858905E-01
-5.858625E-01
-6.932482E-01
-6.648232E-01
-6.176039E-01
-5.848280E-01
-7.037536E-01
-5.716390E-01
-5.508475E-01
-5.653296E-01
-6.796227E-01
-6.618845E-01
-5.848280E-01
-6.178521E-01
-5.621551E-01
-5.333679E-01
-5.180717E-01
-5.210287E-01
-6.378435E-01
-5.653296E-01
-5.621551E-01
-5.858625E-01
-5.221521E-01
-5.032905E-01
-4.748275E-01
-5.005242E-01
-6.201053E-01
-5.210287E-01
-5.221521E-01
-5.716390E-01
-4.906811E-01
-4.615605E-01
-4.420516E-01
-4.483937E-01
-4.577005E-01
-5.858905E-01
-5.032905E-01
-5.005242E-01
-4.906811E-01
-5.333679E-01
-4.535280E-01
-4.187367E-01
-3.893362E-01
-3.998662E-01
-4.186218E-01
-5.508475E-01
-4.615605E-01
-4.577005E-01
-4.535280E-01
-5.180717E-01
-4.095291E-01
-3.797696E-01
-4.008836E-01
-3.735846E-01
-3.382108E-01
-3.789208E-01
-4.187367E-01
-4.483937E-01
-4.186218E-01
-4.095291E-01
-4.748275E-01
-3.740006E-01
-3.222016E-01
-3.469591E-01
-3.207122E-01
-2.953871E-01
-3.350215E-01
-3.797696E-01
-4.008836E-01
-3.998662E-01
-3.789208E-01
-3.740006E-01
-4.420516E-01
-3.276485E-01
-2.894257E-01
-3.072443E-01
-3.207980E-01
-2.395233E-01
-3.046426E-01
-3.222016E-01
-3.469591E-01
-3.735846E-01
-3.350215E-01
-3.276485E-01
-3.893362E-01
-2.986847E-01
-2.352487E-01
-2.608922E-01
-2.726810E-01
-1.966995E-01
-2.106714E-01
-2.534207E-01
-2.894257E-01
-3.072443E-01
-3.207980E-01
-3.207122E-01
-3.046426E-01
-2.986847E-01
-3.382108E-01
-2.517606E-01
-1.888966E-01
-2.113571E-01
-2.356825E-01
-1.335091E-01
-1.529939E-01
-2.295025E-01
-2.352487E-01
-2.608922E-01
-2.726810E-01
-2.953871E-01
-2.534207E-01
-2.517606E-01
-2.191728E-01
-1.785812E-01
-1.363932E-01
-1.780022E-01
-1.905388E-01
-1.186554E-01
-7.408460E-02
-1.866788E-01
-1.888966E-01
-2.106714E-01
-2.113571E-01
-2.356825E-01
-2.395233E-01
-2.295025E-01
-2.191728E-01
-1.831366E-01
-1.189448E-01
-7.432218E-02
-1.283579E-01
-1.477150E-01
-5.923092E-02
-2.773250E-02
-1.510137E-01
-1.363932E-01
-1.785812E-01
-1.529939E-01
-1.780022E-01
-1.905388E-01
-1.966995E-01
-1.866788E-01
-1.831366E-01
-1.460588E-01
-1.020763E-01
-6.718914E-02
-3.149843E-02
-1.093782E-01
-1.332756E-01
3.224618E-02
-1.182339E-01
-7.432218E-02
-1.189448E-01
-1.186554E-01
-1.283579E-01
-1.477150E-01
-1.335091E-01
-1.510137E-01
-1.460588E-01
-1.168211E-01
-5.032070E-02
-2.436538E-02
2.687759E-02
-5.873121E-02
-8.627221E-02
7.859828E-02
5.912377E-02
-8.418056E-02
-3.149843E-02
-6.718914E-02
-1.020763E-01
-5.923092E-02
-1.093782E-01
-1.332756E-01
-7.408460E-02
-1.182339E-01
-1.168211E-01
-8.404521E-02
-2.595532E-02
2.808475E-02
6.970135E-02
-5.006475E-02
-6.995708E-02
1.426436E-01
1.171703E-01
-6.571127E-02
2.687759E-02
-2.436538E-02
-5.032070E-02
-2.773250E-02
-5.873121E-02
-8.627221E-02
-8.418056E-02
-8.404521E-02
-6.767991E-02
2.193081E-02
7.090851E-02
5.001556E-02
1.277479E-01
-1.728886E-02
-3.374961E-02
1.543380E-01
2.013204E-01
-3.419894E-02
6.970135E-02
5.912377E-02
2.808475E-02
-2.595532E-02
3.224618E-02
-5.006475E-02
-6.995708E-02
-6.571127E-02
-6.767991E-02
-4.046548E-02
5.470670E-02
1.271778E-01
9.784702E-02
1.848721E-01
1.964766E-02
-1.646075E-02
2.112677E-01
2.441441E-01
-2.531845E-02
1.277479E-01
7.090851E-02
1.171703E-01
5.001556E-02
2.193081E-02
7.859828E-02
-1.728886E-02
-3.374961E-02
-3.419894E-02
-4.046548E-02
-2.718748E-02
5.242355E-02
1.025382E-01
1.321855E-01
1.830949E-01
2.312242E-01
3.329293E-02
1.364527E-02
2.991064E-01
-7.580264E-03
1.848721E-01
1.271778E-01
1.543380E-01
9.784702E-02
5.470670E-02
1.426436E-01
1.964766E-02
-1.646075E-02
-2.531845E-02
-2.718748E-02
-1.204045E-02
9.235038E-02
1.448996E-01
1.797004E-01
2.158708E-01
2.849120E-01
6.362744E-02
3.138345E-02
3.419302E-01
3.199178E-01
8.219403E-03
2.312242E-01
1.830949E-01
1.321855E-01
2.112677E-01
1.025382E-01
5.242355E-02
2.013204E-01
3.329293E-02
1.364527E-02
-7.580264E-03
-1.204045E-02
-4.460187E-03
8.990900E-02
1.369949E-01
1.877233E-01
2.632510E-01
3.176879E-01
6.171796E-02
2.595758E-02
3.970801E-01
3.694964E-01
1.150176E-02
2.849120E-01
2.158708E-01
1.797004E-01
2.441441E-01
1.448996E-01
9.235038E-02
6.362744E-02
3.138345E-02
8.219403E-03
-4.460187E-03
3.282357E-03
1.207754E-01
1.547331E-01
2.310617E-01
3.096031E-01
2.704189E-01
3.724404E-01
8.286738E-02
4.346342E-02
4.038349E-01
4.460761E-01
1.972116E-02
3.176879E-01
3.199178E-01
2.632510E-01
1.877233E-01
2.991064E-01
1.369949E-01
8.990900E-02
6.171796E-02
2.595758E-02
1.150176E-02
3.282357E-03
3.282357E-03
1.156433E-01
1.873179E-01
2.487998E-01
3.539388E-01
3.091556E-01
4.159213E-01
7.003871E-02
3.394464E-02
4.496027E-01
4.788520E-01
1.150176E-02
3.724404E-01
3.096031E-01
3.694964E-01
2.704189E-01
2.310617E-01
3.419302E-01
1.547331E-01
1.207754E-01
8.286738E-02
4.346342E-02
1.972116E-02
3.282357E-03
-4.460187E-03
1.420343E-01
2.301417E-01
1.797512E-01
2.988440E-01
3.463234E-01
4.055044E-01
4.587450E-01
7.003871E-02
4.346342E-02
5.204305E-01
8.219403E-03
4.159213E-01
3.539388E-01
4.038349E-01
3.091556E-01
2.487998E-01
3.970801E-01
1.873179E-01
1.156433E-01
7.003871E-02
3.394464E-02
1.150176E-02
-4.460187E-03
-1.204045E-02
1.420343E-01
2.569135E-01
2.017487E-01
3.264707E-01
3.823638E-01
4.232426E-01
4.995712E-01
8.286738E-02
2.595758E-02
5.532064E-01
5.320073E-01
-7.580264E-03
4.587450E-01
4.055044E-01
3.463234E-01
4.496027E-01
2.988440E-01
2.301417E-01
4.460761E-01
1.797512E-01
1.420343E-01
7.003871E-02
4.346342E-02
8.219403E-03
-1.204045E-02
-2.718748E-02
1.156433E-01
1.797512E-01
2.360873E-01
3.031984E-01
3.728228E-01
4.583396E-01
5.173093E-01
6.171796E-02
3.138345E-02
5.910648E-01
5.655700E-01
-2.531845E-02
4.995712E-01
4.232426E-01
3.823638E-01
4.788520E-01
3.264707E-01
2.569135E-01
2.017487E-01
1.420343E-01
8.286738E-02
2.595758E-02
-7.580264E-03
-2.718748E-02
-4.046548E-02
1.207754E-01
1.873179E-01
2.569135E-01
3.031984E-01
4.050155E-01
5.011634E-01
4.496535E-01
5.604324E-01
6.362744E-02
1.364527E-02
5.918515E-01
6.229208E-01
-3.419894E-02
5.173093E-01
5.320073E-01
4.583396E-01
3.728228E-01
5.204305E-01
3.031984E-01
2.360873E-01
1.797512E-01
1.156433E-01
6.171796E-02
3.138345E-02
-2.531845E-02
-4.046548E-02
-6.767991E-02
8.990900E-02
1.547331E-01
2.301417E-01
3.264707E-01
4.050155E-01
5.268158E-01
4.733981E-01
5.836502E-01
3.329293E-02
-1.646075E-02
6.194898E-01
6.406590E-01
-6.571127E-02
5.604324E-01
5.011634E-01
5.655700E-01
4.496535E-01
4.050155E-01
5.532064E-01
3.031984E-01
2.569135E-01
1.873179E-01
1.207754E-01
6.362744E-02
1.364527E-02
-3.419894E-02
-6.767991E-02
-8.404521E-02
9.235038E-02
1.369949E-01
2.487998E-01
3.728228E-01
2.988440E-01
4.496535E-01
5.077366E-01
5.661796E-01
6.164261E-01
1.964766E-02
-3.374961E-02
6.625237E-01
-8.418056E-02
5.836502E-01
5.268158E-01
5.918515E-01
4.733981E-01
4.050155E-01
5.910648E-01
3.264707E-01
2.301417E-01
1.547331E-01
8.990900E-02
3.329293E-02
-1.646075E-02
-6.571127E-02
-8.404521E-02
-1.168211E-01
5.242355E-02
1.448996E-01
2.310617E-01
3.823638E-01
3.091556E-01
4.583396E-01
5.268158E-01
5.661796E-01
6.381751E-01
-1.728886E-02
-6.995708E-02
6.802618E-01
6.631035E-01
-1.182339E-01
6.164261E-01
5.661796E-01
5.077366E-01
6.194898E-01
4.496535E-01
3.728228E-01
6.229208E-01
2.988440E-01
2.487998E-01
1.369949E-01
9.235038E-02
1.964766E-02
-3.374961E-02
-8.418056E-02
-1.168211E-01
-1.460588E-01
5.470670E-02
1.877233E-01
1.025382E-01
2.704189E-01
3.463234E-01
4.232426E-01
5.011634E-01
5.836502E-01
6.381751E-01
-5.006475E-02
-8.627221E-02
6.950652E-01
6.755407E-01
-1.510137E-01
6.381751E-01
5.661796E-01
5.268158E-01
6.406590E-01
4.583396E-01
3.823638E-01
3.091556E-01
2.310617E-01
1.448996E-01
5.242355E-02
-1.728886E-02
-6.995708E-02
-1.182339E-01
-1.460588E-01
-1.831366E-01
2.193081E-02
1.797004E-01
9.784702E-02
2.632510E-01
3.539388E-01
4.055044E-01
5.173093E-01
6.164261E-01
5.604324E-01
6.631035E-01
-5.873121E-02
-1.332756E-01
6.897642E-01
7.049315E-01
-1.866788E-01
6.381751E-01
6.631035E-01
5.836502E-01
5.011634E-01
6.625237E-01
4.232426E-01
3.463234E-01
2.704189E-01
1.877233E-01
1.025382E-01
5.470670E-02
-5.006475E-02
-8.627221E-02
-1.510137E-01
-1.831366E-01
-2.191728E-01
5.001556E-02
-2.595532E-02
1.321855E-01
2.158708E-01
3.096031E-01
4.159213E-01
4.995712E-01
6.194898E-01
5.655700E-01
6.625237E-01
-1.093782E-01
-1.477150E-01
6.950652E-01
7.049315E-01
-2.295025E-01
6.631035E-01
6.164261E-01
6.755407E-01
5.604324E-01
5.173093E-01
6.802618E-01
4.055044E-01
3.539388E-01
2.632510E-01
1.797004E-01
9.784702E-02
2.193081E-02
-5.873121E-02
-1.332756E-01
-1.866788E-01
-2.191728E-01
-2.517606E-01
2.808475E-02
-5.032070E-02
1.271778E-01
1.830949E-01
3.176879E-01
4.587450E-01
3.724404E-01
5.320073E-01
5.918515E-01
6.406590E-01
6.802618E-01
-1.283579E-01
-1.905388E-01
-2.534207E-01
6.625237E-01
6.194898E-01
6.897642E-01
5.655700E-01
4.995712E-01
6.950652E-01
4.159213E-01
3.096031E-01
2.158708E-01
1.321855E-01
5.001556E-02
-2.595532E-02
-1.093782E-01
-1.477150E-01
-2.295025E-01
-2.517606E-01
-2.986847E-01
7.090851E-02
-2.436538E-02
-1.020763E-01
1.848721E-01
2.849120E-01
4.496027E-01
3.694964E-01
5.204305E-01
5.910648E-01
6.229208E-01
-1.780022E-01
-2.356825E-01
-3.046426E-01
6.802618E-01
6.406590E-01
5.918515E-01
6.950652E-01
5.320073E-01
4.587450E-01
7.049315E-01
3.724404E-01
3.176879E-01
1.830949E-01
1.271778E-01
2.808475E-02
-5.032070E-02
-1.283579E-01
-1.905388E-01
-2.534207E-01
-2.986847E-01
-3.276485E-01
6.970135E-02
-6.718914E-02
-1.189448E-01
2.312242E-01
1.277479E-01
3.199178E-01
4.038349E-01
4.788520E-01
5.532064E-01
-2.113571E-01
-2.726810E-01
-3.350215E-01
6.229208E-01
5.910648E-01
7.049315E-01
5.204305E-01
4.496027E-01
3.694964E-01
2.849120E-01
1.848721E-01
7.090851E-02
-2.436538E-02
-1.020763E-01
-1.780022E-01
-2.356825E-01
-3.046426E-01
-3.276485E-01
-3.740006E-01
2.687759E-02
-7.432218E-02
-1.785812E-01
2.112677E-01
1.171703E-01
2.991064E-01
3.970801E-01
4.460761E-01
-2.608922E-01
-3.207980E-01
-3.789208E-01
5.532064E-01
4.788520E-01
4.038349E-01
3.199178E-01
2.312242E-01
1.277479E-01
6.970135E-02
-6.718914E-02
-1.189448E-01
-2.113571E-01
-2.726810E-01
-3.350215E-01
-3.740006E-01
-4.095291E-01
5.912377E-02
-3.149843E-02
-1.363932E-01
-1.888966E-01
1.543380E-01
2.441441E-01
3.419302E-01
-3.072443E-01
-3.469591E-01
-4.186218E-01
4.460761E-01
3.970801E-01
2.991064E-01
2.112677E-01
1.171703E-01
2.687759E-02
-7.432218E-02
-1.785812E-01
-2.608922E-01
-3.207980E-01
-3.789208E-01
-4.095291E-01
-4.535280E-01
3.224618E-02
-5.923092E-02
-1.529939E-01
-2.352487E-01
1.426436E-01
2.013204E-01
-3.222016E-01
-4.008836E-01
-4.577005E-01
3.419302E-01
2.441441E-01
1.543380E-01
5.912377E-02
-3.149843E-02
-1.363932E-01
-1.888966E-01
-3.072443E-01
-3.469591E-01
-4.186218E-01
-4.535280E-01
-4.906811E-01
7.859828E-02
-2.773250E-02
-1.186554E-01
-2.106714E-01
-2.894257E-01
-3.797696E-01
-4.187367E-01
-5.005242E-01
2.013204E-01
1.426436E-01
3.224618E-02
-5.923092E-02
-1.529939E-01
-2.352487E-01
-3.222016E-01
-4.008836E-01
-4.577005E-01
-4.906811E-01
-5.221521E-01
-7.408460E-02
-1.335091E-01
-2.395233E-01
-3.207122E-01
-3.998662E-01
-4.615605E-01
-5.210287E-01
7.859828E-02
-2.773250E-02
-1.186554E-01
-2.106714E-01
-2.894257E-01
-3.797696E-01
-4.187367E-01
-5.005242E-01
-5.221521E-01
-5.621551E-01
-1.966995E-01
-2.953871E-01
-3.735846E-01
-4.483937E-01
-5.032905E-01
-5.653296E-01
-7.408460E-02
-1.335091E-01
-2.395233E-01
-3.207122E-01
-3.998662E-01
-4.615605E-01
-5.210287E-01
-5.621551E-01
-5.848280E-01
-3.382108E-01
-3.893362E-01
-4.748275E-01
-5.333679E-01
-5.858625E-01
-1.966995E-01
-2.953871E-01
-3.735846E-01
-4.483937E-01
-5.032905E-01
-5.653296E-01
-5.848280E-01
-6.176039E-01
-4.420516E-01
-5.180717E-01
-5.716390E-01
-6.178521E-01
-3.382108E-01
-3.893362E-01
-4.748275E-01
-5.333679E-01
-5.858625E-01
-6.176039E-01
-6.405339E-01
-5.508475E-01
-5.858905E-01
-6.378435E-01
-4.420516E-01
-5.180717E-01
-5.716390E-01
-6.178521E-01
-6.405339E-01
-6.648232E-01
-6.201053E-01
-6.618845E-01
-5.508475E-01
-5.858905E-01
-6.378435E-01
-6.648232E-01
-6.826665E-01
-6.796227E-01
-6.201053E-01
-6.618845E-01
-6.826665E-01
-6.932482E-01
-6.796227E-01
-6.932482E-01
-7.037536E-01
-7.037536E-01
