# vtk DataFile Version 2.0
Grille
ASCII
DATASET POLYDATA
POINTS 481 float
0.000000E+00 8.750000E-01 -8.960444E-01
6.250000E-02 8.750000E-01 -8.788271E-01
1.250000E-01 8.750000E-01 -8.278371E-01
1.250000E-01 9.375000E-01 -8.788271E-01
1.250000E-01 1.000000E+00 -8.960444E-01
6.250000E-02 1.000000E+00 -9.512356E-01
0.000000E+00 1.000000E+00 -9.698714E-01
0.000000E+00 9.375000E-01 -9.512356E-01
3.750000E-02 9.125000E-01 -9.269876E-01
8.125000E-02 9.187500E-01 -9.080402E-01
8.750000E-02 9.625000E-01 -9.269876E-01
4.375000E-02 9.562500E-01 -9.516647E-01
1.875000E-01 8.750000E-01 -7.450337E-01
2.500000E-01 8.750000E-01 -6.335991E-01
2.500000E-01 9.375000E-01 -6.726252E-01
2.500000E-01 1.000000E+00 -6.858027E-01
1.875000E-01 1.000000E+00 -8.064186E-01
1.625000E-01 9.125000E-01 -8.144383E-01
2.062500E-01 9.187500E-01 -7.482430E-01
2.125000E-01 9.625000E-01 -7.563770E-01
1.687500E-01 9.562500E-01 -8.288504E-01
0.000000E+00 7.500000E-01 -6.858027E-01
6.250000E-02 7.500000E-01 -6.726252E-01
1.250000E-01 7.500000E-01 -6.335991E-01
1.250000E-01 8.125000E-01 -7.450337E-01
0.000000E+00 8.125000E-01 -8.064186E-01
3.750000E-02 7.875000E-01 -7.563770E-01
8.125000E-02 7.937500E-01 -7.482430E-01
8.750000E-02 8.375000E-01 -8.144383E-01
4.375000E-02 8.312500E-01 -8.288504E-01
1.875000E-01 7.500000E-01 -5.702241E-01
2.500000E-01 7.500000E-01 -4.849357E-01
2.500000E-01 8.125000E-01 -5.702241E-01
1.625000E-01 7.875000E-01 -6.645422E-01
2.062500E-01 7.937500E-01 -6.165669E-01
2.125000E-01 8.375000E-01 -6.645422E-01
1.687500E-01 8.312500E-01 -7.218856E-01
3.125000E-01 8.750000E-01 -4.978156E-01
3.750000E-01 8.750000E-01 -3.429013E-01
3.750000E-01 9.375000E-01 -3.640221E-01
3.750000E-01 1.000000E+00 -3.711537E-01
3.125000E-01 1.000000E+00 -5.388317E-01
2.875000E-01 9.125000E-01 -5.778981E-01
3.312500E-01 9.187500E-01 -4.745325E-01
3.375000E-01 9.625000E-01 -4.706149E-01
2.937500E-01 9.562500E-01 -5.798512E-01
4.375000E-01 8.750000E-01 -1.748096E-01
5.000000E-01 8.750000E-01 -5.486689E-17
5.000000E-01 9.375000E-01 -5.824638E-17
5.000000E-01 1.000000E+00 -5.938750E-17
4.375000E-01 1.000000E+00 -1.892125E-01
4.125000E-01 9.125000E-01 -2.533782E-01
4.562500E-01 9.187500E-01 -1.285788E-01
4.625000E-01 9.625000E-01 -1.132060E-01
4.187500E-01 9.562500E-01 -2.425750E-01
3.125000E-01 7.500000E-01 -3.810116E-01
3.750000E-01 7.500000E-01 -2.624453E-01
3.750000E-01 8.125000E-01 -3.086031E-01
2.875000E-01 7.875000E-01 -4.715369E-01
3.312500E-01 7.937500E-01 -3.910241E-01
3.375000E-01 8.375000E-01 -4.134757E-01
2.937500E-01 8.312500E-01 -5.050203E-01
4.375000E-01 7.500000E-01 -1.337935E-01
5.000000E-01 7.500000E-01 -4.199330E-17
5.000000E-01 8.125000E-01 -4.937890E-17
4.125000E-01 7.875000E-01 -2.067444E-01
4.562500E-01 7.937500E-01 -1.059514E-01
4.625000E-01 8.375000E-01 -9.946120E-02
4.187500E-01 8.312500E-01 -2.112702E-01
0.000000E+00 6.250000E-01 -3.711537E-01
6.250000E-02 6.250000E-01 -3.640221E-01
1.250000E-01 6.250000E-01 -3.429013E-01
1.250000E-01 6.875000E-01 -4.978156E-01
0.000000E+00 6.875000E-01 -5.388317E-01
3.750000E-02 6.625000E-01 -4.706149E-01
8.125000E-02 6.687500E-01 -4.745325E-01
8.750000E-02 7.125000E-01 -5.778981E-01
4.375000E-02 7.062500E-01 -5.798512E-01
1.875000E-01 6.250000E-01 -3.086031E-01
2.500000E-01 6.250000E-01 -2.624453E-01
2.500000E-01 6.875000E-01 -3.810116E-01
1.625000E-01 6.625000E-01 -4.134757E-01
2.062500E-01 6.687500E-01 -3.910241E-01
2.125000E-01 7.125000E-01 -4.715369E-01
1.687500E-01 7.062500E-01 -5.050203E-01
0.000000E+00 5.000000E-01 5.938750E-17
6.250000E-02 5.000000E-01 5.824638E-17
1.250000E-01 5.000000E-01 5.486689E-17
1.250000E-01 5.625000E-01 -1.748096E-01
0.000000E+00 5.625000E-01 -1.892125E-01
3.750000E-02 5.375000E-01 -1.132060E-01
8.125000E-02 5.437500E-01 -1.285788E-01
8.750000E-02 5.875000E-01 -2.533782E-01
4.375000E-02 5.812500E-01 -2.425750E-01
1.875000E-01 5.000000E-01 4.937890E-17
2.500000E-01 5.000000E-01 4.199330E-17
2.500000E-01 5.625000E-01 -1.337935E-01
1.625000E-01 5.375000E-01 -9.946120E-02
2.062500E-01 5.437500E-01 -1.059514E-01
2.125000E-01 5.875000E-01 -2.067444E-01
1.687500E-01 5.812500E-01 -2.112702E-01
3.125000E-01 6.250000E-01 -2.062020E-01
3.750000E-01 6.250000E-01 -1.420344E-01
3.750000E-01 6.875000E-01 -2.062020E-01
2.875000E-01 6.625000E-01 -2.933885E-01
3.312500E-01 6.687500E-01 -2.479858E-01
3.375000E-01 7.125000E-01 -2.933885E-01
2.937500E-01 7.062500E-01 -3.533046E-01
4.375000E-01 6.250000E-01 -7.240850E-02
5.000000E-01 6.250000E-01 -2.272661E-17
5.000000E-01 6.875000E-01 -3.299393E-17
4.125000E-01 6.625000E-01 -1.286356E-01
4.562500E-01 6.687500E-01 -6.719396E-02
4.625000E-01 7.125000E-01 -7.057434E-02
4.187500E-01 7.062500E-01 -1.478014E-01
3.125000E-01 5.000000E-01 3.299393E-17
3.750000E-01 5.000000E-01 2.272661E-17
3.750000E-01 5.625000E-01 -7.240850E-02
2.875000E-01 5.375000E-01 -7.057434E-02
3.312500E-01 5.437500E-01 -6.719396E-02
3.375000E-01 5.875000E-01 -1.286356E-01
2.937500E-01 5.812500E-01 -1.478014E-01
4.375000E-01 5.000000E-01 1.158593E-17
5.000000E-01 5.000000E-01 3.636435E-33
5.000000E-01 5.625000E-01 -1.158593E-17
4.125000E-01 5.375000E-01 -3.094317E-02
4.562500E-01 5.437500E-01 -1.820680E-02
4.625000E-01 5.875000E-01 -3.094317E-02
4.187500E-01 5.812500E-01 -6.183124E-02
5.625000E-01 8.750000E-01 1.748096E-01
6.250000E-01 8.750000E-01 3.429013E-01
6.250000E-01 9.375000E-01 3.640221E-01
6.250000E-01 1.000000E+00 3.711537E-01
5.625000E-01 1.000000E+00 1.892125E-01
5.375000E-01 9.125000E-01 1.097162E-01
5.812500E-01 9.187500E-01 2.369499E-01
5.875000E-01 9.625000E-01 2.614375E-01
5.437500E-01 9.562500E-01 1.316312E-01
6.875000E-01 8.750000E-01 4.978156E-01
7.500000E-01 8.750000E-01 6.335991E-01
7.500000E-01 9.375000E-01 6.726252E-01
7.500000E-01 1.000000E+00 6.858027E-01
6.875000E-01 1.000000E+00 5.388317E-01
6.625000E-01 9.125000E-01 4.561073E-01
7.062500E-01 9.187500E-01 5.664051E-01
7.125000E-01 9.625000E-01 5.962796E-01
6.687500E-01 9.562500E-01 4.857976E-01
5.625000E-01 7.500000E-01 1.337935E-01
6.250000E-01 7.500000E-01 2.624453E-01
6.250000E-01 8.125000E-01 3.086031E-01
5.375000E-01 7.875000E-01 8.952312E-02
5.812500E-01 7.937500E-01 1.952514E-01
5.875000E-01 8.375000E-01 2.296953E-01
5.437500E-01 8.312500E-01 1.146439E-01
6.875000E-01 7.500000E-01 3.810116E-01
7.500000E-01 7.500000E-01 4.849357E-01
7.500000E-01 8.125000E-01 5.702241E-01
6.625000E-01 7.875000E-01 3.721615E-01
7.062500E-01 7.937500E-01 4.667289E-01
7.125000E-01 8.375000E-01 5.238829E-01
6.687500E-01 8.312500E-01 4.231045E-01
8.125000E-01 8.750000E-01 7.450337E-01
8.750000E-01 8.750000E-01 8.278371E-01
8.750000E-01 9.375000E-01 8.788271E-01
8.750000E-01 1.000000E+00 8.960444E-01
8.125000E-01 1.000000E+00 8.064186E-01
7.875000E-01 9.125000E-01 7.330603E-01
8.312500E-01 9.187500E-01 8.096303E-01
8.375000E-01 9.625000E-01 8.403434E-01
7.937500E-01 9.562500E-01 7.660058E-01
9.375000E-01 8.750000E-01 8.788271E-01
1.000000E+00 8.750000E-01 8.960444E-01
1.000000E+00 9.375000E-01 9.512356E-01
1.000000E+00 1.000000E+00 9.698714E-01
9.375000E-01 1.000000E+00 9.512356E-01
9.125000E-01 9.125000E-01 8.984114E-01
9.562500E-01 9.187500E-01 9.295966E-01
9.625000E-01 9.625000E-01 9.564726E-01
9.187500E-01 9.562500E-01 9.295966E-01
8.125000E-01 7.500000E-01 5.702241E-01
8.750000E-01 7.500000E-01 6.335991E-01
8.750000E-01 8.125000E-01 7.450337E-01
7.875000E-01 7.875000E-01 5.981417E-01
8.312500E-01 7.937500E-01 6.671512E-01
8.375000E-01 8.375000E-01 7.383139E-01
7.937500E-01 8.312500E-01 6.671512E-01
9.375000E-01 7.500000E-01 6.726252E-01
1.000000E+00 7.500000E-01 6.858027E-01
1.000000E+00 8.125000E-01 8.064186E-01
9.125000E-01 7.875000E-01 7.330603E-01
9.562500E-01 7.937500E-01 7.660058E-01
9.625000E-01 8.375000E-01 8.403434E-01
9.187500E-01 8.312500E-01 8.096303E-01
5.625000E-01 6.250000E-01 7.240850E-02
6.250000E-01 6.250000E-01 1.420344E-01
6.250000E-01 6.875000E-01 2.062020E-01
5.375000E-01 6.625000E-01 5.570095E-02
5.812500E-01 6.687500E-01 1.238276E-01
5.875000E-01 7.125000E-01 1.629841E-01
5.437500E-01 7.062500E-01 8.020314E-02
6.875000E-01 6.250000E-01 2.062020E-01
7.500000E-01 6.250000E-01 2.624453E-01
7.500000E-01 6.875000E-01 3.810116E-01
6.625000E-01 6.625000E-01 2.315575E-01
7.062500E-01 6.687500E-01 2.959975E-01
7.125000E-01 7.125000E-01 3.717297E-01
6.687500E-01 7.062500E-01 2.959975E-01
5.625000E-01 5.000000E-01 -1.158593E-17
6.250000E-01 5.000000E-01 -2.272661E-17
6.250000E-01 5.625000E-01 7.240850E-02
5.375000E-01 5.375000E-01 1.339881E-02
5.812500E-01 5.437500E-01 3.355218E-02
5.875000E-01 5.875000E-01 7.146005E-02
5.437500E-01 5.812500E-01 3.355218E-02
6.875000E-01 5.000000E-01 -3.299393E-17
7.500000E-01 5.000000E-01 -4.199330E-17
7.500000E-01 5.625000E-01 1.337935E-01
6.625000E-01 5.375000E-01 5.570095E-02
7.062500E-01 5.437500E-01 8.020314E-02
7.125000E-01 5.875000E-01 1.629841E-01
6.687500E-01 5.812500E-01 1.238276E-01
8.125000E-01 6.250000E-01 3.086031E-01
8.750000E-01 6.250000E-01 3.429013E-01
8.750000E-01 6.875000E-01 4.978156E-01
7.875000E-01 6.625000E-01 3.721615E-01
8.312500E-01 6.687500E-01 4.231045E-01
8.375000E-01 7.125000E-01 5.238829E-01
7.937500E-01 7.062500E-01 4.667289E-01
9.375000E-01 6.250000E-01 3.640221E-01
1.000000E+00 6.250000E-01 3.711537E-01
1.000000E+00 6.875000E-01 5.388317E-01
9.125000E-01 6.625000E-01 4.561073E-01
9.562500E-01 6.687500E-01 4.857976E-01
9.625000E-01 7.125000E-01 5.962796E-01
9.187500E-01 7.062500E-01 5.664051E-01
8.125000E-01 5.000000E-01 -4.937890E-17
8.750000E-01 5.000000E-01 -5.486689E-17
8.750000E-01 5.625000E-01 1.748096E-01
7.875000E-01 5.375000E-01 8.952312E-02
8.312500E-01 5.437500E-01 1.146439E-01
8.375000E-01 5.875000E-01 2.296953E-01
7.937500E-01 5.812500E-01 1.952514E-01
9.375000E-01 5.000000E-01 -5.824638E-17
1.000000E+00 5.000000E-01 -5.938750E-17
1.000000E+00 5.625000E-01 1.892125E-01
9.125000E-01 5.375000E-01 1.097162E-01
9.562500E-01 5.437500E-01 1.316312E-01
9.625000E-01 5.875000E-01 2.614375E-01
9.187500E-01 5.812500E-01 2.369499E-01
0.000000E+00 3.750000E-01 3.711537E-01
6.250000E-02 3.750000E-01 3.640221E-01
[...]
CELL_DATA 896
SCALARS sol float 1
LOOKUP_TABLE default
-9.006197E-01
-9.046183E-01
-9.247559E-01
-8.679073E-01
-9.288975E-01
-8.715681E-01
-9.432959E-01
-8.437711E-01
-8.407053E-01
-9.288975E-01
-8.715681E-01
-8.403675E-01
-9.575906E-01
-7.972154E-01
-7.971772E-01
-9.432959E-01
-9.046183E-01
-8.403675E-01
-7.957697E-01
-9.575906E-01
-7.778235E-01
-7.495328E-01
-7.692383E-01
-9.247559E-01
-9.006197E-01
-7.957697E-01
-8.407053E-01
-7.649188E-01
-7.257484E-01
-7.049350E-01
-7.089586E-01
-8.679073E-01
-7.692383E-01
-7.649188E-01
-7.971772E-01
-7.104872E-01
-6.848224E-01
-6.460930E-01
-6.810583E-01
-8.437711E-01
-7.089586E-01
-7.104872E-01
-7.778235E-01
-6.676649E-01
-6.280408E-01
-6.014952E-01
-6.101248E-01
-6.227885E-01
-7.972154E-01
-6.848224E-01
-6.810583E-01
-6.676649E-01
-7.257484E-01
-6.171111E-01
-5.697709E-01
-5.297660E-01
-5.440940E-01
-5.696145E-01
-7.495328E-01
-6.280408E-01
-6.227885E-01
-6.171111E-01
-7.049350E-01
-5.572422E-01
-5.167487E-01
-5.454783E-01
-5.083329E-01
-4.602001E-01
-5.155938E-01
-5.697709E-01
-6.101248E-01
-5.696145E-01
-5.572422E-01
-6.460930E-01
-5.088989E-01
-4.384165E-01
-4.721038E-01
-4.363899E-01
-4.019303E-01
-4.558604E-01
-5.167487E-01
-5.454783E-01
-5.440940E-01
-5.155938E-01
-5.088989E-01
-6.014952E-01
-4.458281E-01
-3.938187E-01
-4.180642E-01
-4.365067E-01
-3.259169E-01
-4.145242E-01
-4.384165E-01
-4.721038E-01
-5.083329E-01
-4.558604E-01
-4.458281E-01
-5.297660E-01
-4.064173E-01
-3.201006E-01
-3.549934E-01
-3.710343E-01
-2.676471E-01
-2.866584E-01
-3.448270E-01
-3.938187E-01
-4.180642E-01
-4.365067E-01
-4.363899E-01
-4.145242E-01
-4.064173E-01
-4.602001E-01
-3.425682E-01
-2.570297E-01
-2.875915E-01
-3.206908E-01
-1.816645E-01
-2.081773E-01
-3.122818E-01
-3.201006E-01
-3.549934E-01
-3.710343E-01
-4.019303E-01
-3.448270E-01
-3.425682E-01
-2.982263E-01
-2.429937E-01
-1.855889E-01
-2.422059E-01
-2.592642E-01
-1.614532E-01
-1.008062E-01
-2.540119E-01
-2.570297E-01
-2.866584E-01
-2.875915E-01
-3.206908E-01
-3.259169E-01
-3.122818E-01
-2.982263E-01
-2.491921E-01
-1.618470E-01
-1.011295E-01
-1.746553E-01
-2.009944E-01
-8.059493E-02
-3.773533E-02
-2.054829E-01
-1.855889E-01
-2.429937E-01
-2.081773E-01
-2.422059E-01
-2.592642E-01
-2.676471E-01
-2.540119E-01
-2.491921E-01
-1.987407E-01
-1.388943E-01
-9.142360E-02
-4.285959E-02
-1.488298E-01
-1.813467E-01
4.387706E-02
-1.608797E-01
-1.011295E-01
-1.618470E-01
-1.614532E-01
-1.746553E-01
-2.009944E-01
-1.816645E-01
-2.054829E-01
-1.987407E-01
-1.589573E-01
-6.847088E-02
-3.315373E-02
3.657207E-02
-7.991497E-02
-1.173897E-01
1.069479E-01
8.044913E-02
-1.145436E-01
-4.285959E-02
-9.142360E-02
-1.388943E-01
-8.059493E-02
-1.488298E-01
-1.813467E-01
-1.008062E-01
-1.608797E-01
-1.589573E-01
-1.143595E-01
-3.531715E-02
3.821464E-02
9.484193E-02
-6.812260E-02
-9.518990E-02
1.940937E-01
1.594324E-01
-8.941268E-02
3.657207E-02
-3.315373E-02
-6.847088E-02
-3.773533E-02
-7.991497E-02
-1.173897E-01
-1.145436E-01
-1.143595E-01
-9.209138E-02
2.984104E-02
9.648450E-02
6.805567E-02
1.738252E-01
-2.352478E-02
-4.592276E-02
2.100062E-01
2.739346E-01
-4.653415E-02
9.484193E-02
8.044913E-02
3.821464E-02
-3.531715E-02
4.387706E-02
-6.812260E-02
-9.518990E-02
-8.941268E-02
-9.209138E-02
-5.506097E-02
7.443886E-02
1.730496E-01
1.331395E-01
2.515536E-01
2.673438E-02
-2.239799E-02
2.874698E-01
3.322045E-01
-3.445056E-02
1.738252E-01
9.648450E-02
1.594324E-01
6.805567E-02
2.984104E-02
1.069479E-01
-2.352478E-02
-4.592276E-02
-4.653415E-02
-5.506097E-02
-3.699374E-02
7.133220E-02
1.395227E-01
1.798635E-01
2.491354E-01
3.146245E-01
4.530136E-02
1.856698E-02
4.069912E-01
-1.031439E-02
2.515536E-01
1.730496E-01
2.100062E-01
1.331395E-01
7.443886E-02
1.940937E-01
2.673438E-02
-2.239799E-02
-3.445056E-02
-3.699374E-02
-1.638332E-02
1.256602E-01
1.971634E-01
2.445166E-01
2.937332E-01
3.876769E-01
8.657723E-02
4.270315E-02
4.652610E-01
4.353090E-01
1.118406E-02
3.146245E-01
2.491354E-01
1.798635E-01
2.874698E-01
1.395227E-01
7.133220E-02
2.739346E-01
4.530136E-02
1.856698E-02
-1.031439E-02
-1.638332E-02
-6.068932E-03
1.223383E-01
1.864076E-01
2.554332E-01
3.582030E-01
4.322748E-01
8.397901E-02
3.532023E-02
5.403030E-01
5.027700E-01
1.565033E-02
3.876769E-01
2.937332E-01
2.445166E-01
3.322045E-01
1.971634E-01
1.256602E-01
8.657723E-02
4.270315E-02
1.118406E-02
-6.068932E-03
4.466271E-03
1.643379E-01
2.105438E-01
3.144033E-01
4.212738E-01
3.679564E-01
5.067760E-01
1.127568E-01
5.914024E-02
5.494941E-01
6.069713E-01
2.683439E-02
4.322748E-01
4.353090E-01
3.582030E-01
2.554332E-01
4.069912E-01
1.864076E-01
1.223383E-01
8.397901E-02
3.532023E-02
1.565033E-02
4.466271E-03
4.466271E-03
1.573546E-01
2.548816E-01
3.385395E-01
4.816010E-01
4.206650E-01
5.659399E-01
9.530098E-02
4.618814E-02
6.117699E-01
6.515691E-01
1.565033E-02
5.067760E-01
4.212738E-01
5.027700E-01
3.679564E-01
3.144033E-01
4.652610E-01
2.105438E-01
1.643379E-01
1.127568E-01
5.914024E-02
2.683439E-02
4.466271E-03
-6.068932E-03
1.932646E-01
3.131515E-01
2.445857E-01
4.066340E-01
4.712388E-01
5.517658E-01
6.242098E-01
9.530098E-02
5.914024E-02
7.081446E-01
1.118406E-02
5.659399E-01
4.816010E-01
5.494941E-01
4.206650E-01
3.385395E-01
5.403030E-01
2.548816E-01
1.573546E-01
9.530098E-02
4.618814E-02
1.565033E-02
-6.068932E-03
-1.638332E-02
1.932646E-01
3.495796E-01
2.745175E-01
4.442254E-01
5.202786E-01
5.759020E-01
6.797615E-01
1.127568E-01
3.532023E-02
7.527424E-01
7.238971E-01
-1.031439E-02
6.242098E-01
5.517658E-01
4.712388E-01
6.117699E-01
4.066340E-01
3.131515E-01
6.069713E-01
2.445857E-01
1.932646E-01
9.530098E-02
5.914024E-02
1.118406E-02
-1.638332E-02
-3.699374E-02
1.573546E-01
2.445857E-01
3.212416E-01
4.125590E-01
5.072962E-01
6.236581E-01
7.038977E-01
8.397901E-02
4.270315E-02
8.042560E-01
7.695654E-01
-3.445056E-02
6.797615E-01
5.759020E-01
5.202786E-01
6.515691E-01
4.442254E-01
3.495796E-01
2.745175E-01
1.932646E-01
1.127568E-01
3.532023E-02
-1.031439E-02
-3.699374E-02
-5.506097E-02
1.643379E-01
2.548816E-01
3.495796E-01
4.125590E-01
5.511005E-01
6.819280E-01
6.118390E-01
7.625747E-01
8.657723E-02
1.856698E-02
8.053265E-01
8.476022E-01
-4.653415E-02
7.038977E-01
7.238971E-01
6.236581E-01
5.072962E-01
7.081446E-01
4.125590E-01
3.212416E-01
2.445857E-01
1.573546E-01
8.397901E-02
4.270315E-02
-3.445056E-02
-5.506097E-02
-9.209138E-02
1.223383E-01
2.105438E-01
3.131515E-01
4.442254E-01
5.511005E-01
7.168330E-01
6.441481E-01
7.941670E-01
4.530136E-02
-2.239799E-02
8.429336E-01
8.717383E-01
-8.941268E-02
7.625747E-01
6.819280E-01
7.695654E-01
6.118390E-01
5.511005E-01
7.527424E-01
4.125590E-01
3.495796E-01
2.548816E-01
1.643379E-01
8.657723E-02
1.856698E-02
-4.653415E-02
-9.209138E-02
-1.143595E-01
1.256602E-01
1.864076E-01
3.385395E-01
5.072962E-01
4.066340E-01
6.118390E-01
6.908721E-01
7.703949E-01
8.387648E-01
2.673438E-02
-4.592276E-02
9.014894E-01
-1.145436E-01
7.941670E-01
7.168330E-01
8.053265E-01
6.441481E-01
5.511005E-01
8.042560E-01
4.442254E-01
3.131515E-01
2.105438E-01
1.223383E-01
4.530136E-02
-2.239799E-02
-8.941268E-02
-1.143595E-01
-1.589573E-01
7.133220E-02
1.971634E-01
3.144033E-01
5.202786E-01
4.206650E-01
6.236581E-01
7.168330E-01
7.703949E-01
8.683585E-01
-2.352478E-02
-9.518990E-02
9.256255E-01
9.022784E-01
-1.608797E-01
8.387648E-01
7.703949E-01
6.908721E-01
8.429336E-01
6.118390E-01
5.072962E-01
8.476022E-01
4.066340E-01
3.385395E-01
1.864076E-01
1.256602E-01
2.673438E-02
-4.592276E-02
-1.145436E-01
-1.589573E-01
-1.987407E-01
7.443886E-02
2.554332E-01
1.395227E-01
3.679564E-01
4.712388E-01
5.759020E-01
6.819280E-01
7.941670E-01
8.683585E-01
-6.812260E-02
-1.173897E-01
9.457683E-01
9.192015E-01
-2.054829E-01
8.683585E-01
7.703949E-01
7.168330E-01
8.717383E-01
6.236581E-01
5.202786E-01
4.206650E-01
3.144033E-01
1.971634E-01
7.133220E-02
-2.352478E-02
-9.518990E-02
-1.608797E-01
-1.987407E-01
-2.491921E-01
2.984104E-02
2.445166E-01
1.331395E-01
3.582030E-01
4.816010E-01
5.517658E-01
7.038977E-01
8.387648E-01
7.625747E-01
9.022784E-01
-7.991497E-02
-1.813467E-01
9.385553E-01
9.591932E-01
-2.540119E-01
8.683585E-01
9.022784E-01
7.941670E-01
6.819280E-01
9.014894E-01
5.759020E-01
4.712388E-01
3.679564E-01
2.554332E-01
1.395227E-01
7.443886E-02
-6.812260E-02
-1.173897E-01
-2.054829E-01
-2.491921E-01
-2.982263E-01
6.805567E-02
-3.531715E-02
1.798635E-01
2.937332E-01
4.212738E-01
5.659399E-01
6.797615E-01
8.429336E-01
7.695654E-01
9.014894E-01
-1.488298E-01
-2.009944E-01
9.457683E-01
9.591932E-01
-3.122818E-01
9.022784E-01
8.387648E-01
9.192015E-01
7.625747E-01
7.038977E-01
9.256255E-01
5.517658E-01
4.816010E-01
3.582030E-01
2.445166E-01
1.331395E-01
2.984104E-02
-7.991497E-02
-1.813467E-01
-2.540119E-01
-2.982263E-01
-3.425682E-01
3.821464E-02
-6.847088E-02
1.730496E-01
2.491354E-01
4.322748E-01
6.242098E-01
5.067760E-01
7.238971E-01
8.053265E-01
8.717383E-01
9.256255E-01
-1.746553E-01
-2.592642E-01
-3.448270E-01
9.014894E-01
8.429336E-01
9.385553E-01
7.695654E-01
6.797615E-01
9.457683E-01
5.659399E-01
4.212738E-01
2.937332E-01
1.798635E-01
6.805567E-02
-3.531715E-02
-1.488298E-01
-2.009944E-01
-3.122818E-01
-3.425682E-01
-4.064173E-01
9.648450E-02
-3.315373E-02
-1.388943E-01
2.515536E-01
3.876769E-01
6.117699E-01
5.027700E-01
7.081446E-01
8.042560E-01
8.476022E-01
-2.422059E-01
-3.206908E-01
-4.145242E-01
9.256255E-01
8.717383E-01
8.053265E-01
9.457683E-01
7.238971E-01
6.242098E-01
9.591932E-01
5.067760E-01
4.322748E-01
2.491354E-01
1.730496E-01
3.821464E-02
-6.847088E-02
-1.746553E-01
-2.592642E-01
-3.448270E-01
-4.064173E-01
-4.458281E-01
9.484193E-02
-9.142360E-02
-1.618470E-01
3.146245E-01
1.738252E-01
4.353090E-01
5.494941E-01
6.515691E-01
7.527424E-01
-2.875915E-01
-3.710343E-01
-4.558604E-01
8.476022E-01
8.042560E-01
9.591932E-01
7.081446E-01
6.117699E-01
5.027700E-01
3.876769E-01
2.515536E-01
9.648450E-02
-3.315373E-02
-1.388943E-01
-2.422059E-01
-3.206908E-01
-4.145242E-01
-4.458281E-01
-5.088989E-01
3.657207E-02
-1.011295E-01
-2.429937E-01
2.874698E-01
1.594324E-01
4.069912E-01
5.403030E-01
6.069713E-01
-3.549934E-01
-4.365067E-01
-5.155938E-01
7.527424E-01
6.515691E-01
5.494941E-01
4.353090E-01
3.146245E-01
1.738252E-01
9.484193E-02
-9.142360E-02
-1.618470E-01
-2.875915E-01
-3.710343E-01
-4.558604E-01
-5.088989E-01
-5.572422E-01
8.044913E-02
-4.285959E-02
-1.855889E-01
-2.570297E-01
2.100062E-01
3.322045E-01
4.652610E-01
-4.180642E-01
-4.721038E-01
-5.696145E-01
6.069713E-01
5.403030E-01
4.069912E-01
2.874698E-01
1.594324E-01
3.657207E-02
-1.011295E-01
-2.429937E-01
-3.549934E-01
-4.365067E-01
-5.155938E-01
-5.572422E-01
-6.171111E-01
4.387706E-02
-8.059493E-02
-2.081773E-01
-3.201006E-01
1.940937E-01
2.739346E-01
-4.384165E-01
-5.454783E-01
-6.227885E-01
4.652610E-01
3.322045E-01
2.100062E-01
8.044913E-02
-4.285959E-02
-1.855889E-01
-2.570297E-01
-4.180642E-01
-4.721038E-01
-5.696145E-01
-6.171111E-01
-6.676649E-01
1.069479E-01
-3.773533E-02
-1.614532E-01
-2.866584E-01
-3.938187E-01
-5.167487E-01
-5.697709E-01
-6.810583E-01
2.739346E-01
1.940937E-01
4.387706E-02
-8.059493E-02
-2.081773E-01
-3.201006E-01
-4.384165E-01
-5.454783E-01
-6.227885E-01
-6.676649E-01
-7.104872E-01
-1.008062E-01
-1.816645E-01
-3.259169E-01
-4.363899E-01
-5.440940E-01
-6.280408E-01
-7.089586E-01
1.069479E-01
-3.773533E-02
-1.614532E-01
-2.866584E-01
-3.938187E-01
-5.167487E-01
-5.697709E-01
-6.810583E-01
-7.104872E-01
-7.649188E-01
-2.676471E-01
-4.019303E-01
-5.083329E-01
-6.101248E-01
-6.848224E-01
-7.692383E-01
-1.008062E-01
-1.816645E-01
-3.259169E-01
-4.363899E-01
-5.440940E-01
-6.280408E-01
-7.089586E-01
-7.649188E-01
-7.957697E-01
-4.602001E-01
-5.297660E-01
-6.460930E-01
-7.257484E-01
-7.971772E-01
-2.676471E-01
-4.019303E-01
-5.083329E-01
-6.101248E-01
-6.848224E-01
-7.692383E-01
-7.957697E-01
-8.403675E-01
-6.014952E-01
-7.049350E-01
-7.778235E-01
-8.407053E-01
-4.602001E-01
-5.297660E-01
-6.460930E-01
-7.257484E-01
-7.971772E-01
-8.403675E-01
-8.715681E-01
-7.495328E-01
-7.972154E-01
-8.679073E-01
-6.014952E-01
-7.049350E-01
-7.778235E-01
-8.407053E-01
-8.715681E-01
-9.046183E-01
-8.437711E-01
-9.006197E-01
-7.495328E-01
-7.972154E-01
-8.679073E-01
-9.046183E-01
-9.288975E-01
-9.247559E-01
-8.437711E-01
-9.006197E-01
-9.288975E-01
-9.432959E-01
-9.247559E-01
-9.432959E-01
-9.575906E-01
-9.575906E-01
