# vtk DataFile Version 2.0
Grille
ASCII
DATASET POLYDATA
POINTS 481 float
0.000000E+00 8.750000E-01 -8.686073E-01
6.250000E-02 8.750000E-01 -8.519173E-01
1.250000E-01 8.750000E-01 -8.024885E-01
1.250000E-01 9.375000E-01 -8.519173E-01
1.250000E-01 1.000000E+00 -8.686073E-01
6.250000E-02 1.000000E+00 -9.221086E-01
0.000000E+00 1.000000E+00 -9.401738E-01
0.000000E+00 9.375000E-01 -9.221086E-01
3.750000E-02 9.125000E-01 -8.986030E-01
8.125000E-02 9.187500E-01 -8.802358E-01
8.750000E-02 9.625000E-01 -8.986030E-01
4.375000E-02 9.562500E-01 -9.225245E-01
1.875000E-01 8.750000E-01 -7.222206E-01
2.500000E-01 8.750000E-01 -6.141981E-01
2.500000E-01 9.375000E-01 -6.520293E-01
2.500000E-01 1.000000E+00 -6.648033E-01
1.875000E-01 1.000000E+00 -7.817259E-01
1.625000E-01 9.125000E-01 -7.895000E-01
2.062500E-01 9.187500E-01 -7.253316E-01
2.125000E-01 9.625000E-01 -7.332166E-01
1.687500E-01 9.562500E-01 -8.034709E-01
0.000000E+00 7.500000E-01 -6.648033E-01
6.250000E-02 7.500000E-01 -6.520293E-01
1.250000E-01 7.500000E-01 -6.141981E-01
1.250000E-01 8.125000E-01 -7.222206E-01
0.000000E+00 8.125000E-01 -7.817259E-01
3.750000E-02 7.875000E-01 -7.332166E-01
8.125000E-02 7.937500E-01 -7.253316E-01
8.750000E-02 8.375000E-01 -7.895000E-01
4.375000E-02 8.312500E-01 -8.034709E-01
1.875000E-01 7.500000E-01 -5.527637E-01
2.500000E-01 7.500000E-01 -4.700869E-01
2.500000E-01 8.125000E-01 -5.527637E-01
1.625000E-01 7.875000E-01 -6.441938E-01
2.062500E-01 7.937500E-01 -5.976875E-01
2.125000E-01 8.375000E-01 -6.441938E-01
1.687500E-01 8.312500E-01 -6.997813E-01
3.125000E-01 8.750000E-01 -4.825724E-01
3.750000E-01 8.750000E-01 -3.324016E-01
3.750000E-01 9.375000E-01 -3.528757E-01
3.750000E-01 1.000000E+00 -3.597889E-01
3.125000E-01 1.000000E+00 -5.223326E-01
2.875000E-01 9.125000E-01 -5.602028E-01
3.312500E-01 9.187500E-01 -4.600022E-01
3.375000E-01 9.625000E-01 -4.562046E-01
2.937500E-01 9.562500E-01 -5.620961E-01
4.375000E-01 8.750000E-01 -1.694569E-01
5.000000E-01 8.750000E-01 -5.318686E-17
5.000000E-01 9.375000E-01 -5.646287E-17
5.000000E-01 1.000000E+00 -5.756904E-17
4.375000E-01 1.000000E+00 -1.834188E-01
4.125000E-01 9.125000E-01 -2.456197E-01
4.562500E-01 9.187500E-01 -1.246417E-01
4.625000E-01 9.625000E-01 -1.097396E-01
4.187500E-01 9.562500E-01 -2.351473E-01
3.125000E-01 7.500000E-01 -3.693449E-01
3.750000E-01 7.500000E-01 -2.544092E-01
3.750000E-01 8.125000E-01 -2.991536E-01
2.875000E-01 7.875000E-01 -4.570984E-01
3.312500E-01 7.937500E-01 -3.790509E-01
3.375000E-01 8.375000E-01 -4.008150E-01
2.937500E-01 8.312500E-01 -4.895565E-01
4.375000E-01 7.500000E-01 -1.296967E-01
5.000000E-01 7.500000E-01 -4.070746E-17
5.000000E-01 8.125000E-01 -4.786691E-17
4.125000E-01 7.875000E-01 -2.004138E-01
4.562500E-01 7.937500E-01 -1.027072E-01
4.625000E-01 8.375000E-01 -9.641568E-02
4.187500E-01 8.312500E-01 -2.048010E-01
0.000000E+00 6.250000E-01 -3.597889E-01
6.250000E-02 6.250000E-01 -3.528757E-01
1.250000E-01 6.250000E-01 -3.324016E-01
1.250000E-01 6.875000E-01 -4.825724E-01
0.000000E+00 6.875000E-01 -5.223326E-01
3.750000E-02 6.625000E-01 -4.562046E-01
8.125000E-02 6.687500E-01 -4.600022E-01
8.750000E-02 7.125000E-01 -5.602028E-01
4.375000E-02 7.062500E-01 -5.620961E-01
1.875000E-01 6.250000E-01 -2.991536E-01
2.500000E-01 6.250000E-01 -2.544092E-01
2.500000E-01 6.875000E-01 -3.693449E-01
1.625000E-01 6.625000E-01 -4.008150E-01
2.062500E-01 6.687500E-01 -3.790509E-01
2.125000E-01 7.125000E-01 -4.570984E-01
1.687500E-01 7.062500E-01 -4.895565E-01
0.000000E+00 5.000000E-01 5.756904E-17
6.250000E-02 5.000000E-01 5.646287E-17
1.250000E-01 5.000000E-01 5.318686E-17
1.250000E-01 5.625000E-01 -1.694569E-01
0.000000E+00 5.625000E-01 -1.834188E-01
3.750000E-02 5.375000E-01 -1.097396E-01
8.125000E-02 5.437500E-01 -1.246417E-01
8.750000E-02 5.875000E-01 -2.456197E-01
4.375000E-02 5.812500E-01 -2.351473E-01
1.875000E-01 5.000000E-01 4.786691E-17
2.500000E-01 5.000000E-01 4.070746E-17
2.500000E-01 5.625000E-01 -1.296967E-01
1.625000E-01 5.375000E-01 -9.641568E-02
2.062500E-01 5.437500E-01 -1.027072E-01
2.125000E-01 5.875000E-01 -2.004138E-01
1.687500E-01 5.812500E-01 -2.048010E-01
3.125000E-01 6.250000E-01 -1.998880E-01
3.750000E-01 6.250000E-01 -1.376853E-01
3.750000E-01 6.875000E-01 -1.998880E-01
2.875000E-01 6.625000E-01 -2.844049E-01
3.312500E-01 6.687500E-01 -2.403925E-01
3.375000E-01 7.125000E-01 -2.844049E-01
2.937500E-01 7.062500E-01 -3.424863E-01
4.375000E-01 6.250000E-01 -7.019134E-02
5.000000E-01 6.250000E-01 -2.203072E-17
5.000000E-01 6.875000E-01 -3.198365E-17
4.125000E-01 6.625000E-01 -1.246967E-01
4.562500E-01 6.687500E-01 -6.513646E-02
4.625000E-01 7.125000E-01 -6.841334E-02
4.187500E-01 7.062500E-01 -1.432757E-01
3.125000E-01 5.000000E-01 3.198365E-17
3.750000E-01 5.000000E-01 2.203072E-17
3.750000E-01 5.625000E-01 -7.019134E-02
2.875000E-01 5.375000E-01 -6.841334E-02
3.312500E-01 5.437500E-01 -6.513646E-02
3.375000E-01 5.875000E-01 -1.246967E-01
2.937500E-01 5.812500E-01 -1.432757E-01
4.375000E-01 5.000000E-01 1.123116E-17
5.000000E-01 5.000000E-01 3.525087E-33
5.000000E-01 5.625000E-01 -1.123116E-17
4.125000E-01 5.375000E-01 -2.999568E-02
4.562500E-01 5.437500E-01 -1.764930E-02
4.625000E-01 5.875000E-01 -2.999568E-02
4.187500E-01 5.812500E-01 -5.993796E-02
5.625000E-01 8.750000E-01 1.694569E-01
6.250000E-01 8.750000E-01 3.324016E-01
6.250000E-01 9.375000E-01 3.528757E-01
6.250000E-01 1.000000E+00 3.597889E-01
5.625000E-01 1.000000E+00 1.834188E-01
5.375000E-01 9.125000E-01 1.063567E-01
5.812500E-01 9.187500E-01 2.296944E-01
5.875000E-01 9.625000E-01 2.534323E-01
5.437500E-01 9.562500E-01 1.276006E-01
6.875000E-01 8.750000E-01 4.825724E-01
7.500000E-01 8.750000E-01 6.141981E-01
7.500000E-01 9.375000E-01 6.520293E-01
7.500000E-01 1.000000E+00 6.648033E-01
6.875000E-01 1.000000E+00 5.223326E-01
6.625000E-01 9.125000E-01 4.421412E-01
7.062500E-01 9.187500E-01 5.490617E-01
7.125000E-01 9.625000E-01 5.780214E-01
6.687500E-01 9.562500E-01 4.709224E-01
5.625000E-01 7.500000E-01 1.296967E-01
6.250000E-01 7.500000E-01 2.544092E-01
6.250000E-01 8.125000E-01 2.991536E-01
5.375000E-01 7.875000E-01 8.678190E-02
5.812500E-01 7.937500E-01 1.892727E-01
5.875000E-01 8.375000E-01 2.226620E-01
5.437500E-01 8.312500E-01 1.111335E-01
6.875000E-01 7.500000E-01 3.693449E-01
7.500000E-01 7.500000E-01 4.700869E-01
7.500000E-01 8.125000E-01 5.527637E-01
6.625000E-01 7.875000E-01 3.607659E-01
7.062500E-01 7.937500E-01 4.524376E-01
7.125000E-01 8.375000E-01 5.078415E-01
6.687500E-01 8.312500E-01 4.101489E-01
8.125000E-01 8.750000E-01 7.222206E-01
8.750000E-01 8.750000E-01 8.024885E-01
8.750000E-01 9.375000E-01 8.519173E-01
8.750000E-01 1.000000E+00 8.686073E-01
8.125000E-01 1.000000E+00 7.817259E-01
7.875000E-01 9.125000E-01 7.106138E-01
8.312500E-01 9.187500E-01 7.848392E-01
8.375000E-01 9.625000E-01 8.146120E-01
7.937500E-01 9.562500E-01 7.425506E-01
9.375000E-01 8.750000E-01 8.519173E-01
1.000000E+00 8.750000E-01 8.686073E-01
1.000000E+00 9.375000E-01 9.221086E-01
1.000000E+00 1.000000E+00 9.401738E-01
9.375000E-01 1.000000E+00 9.221086E-01
9.125000E-01 9.125000E-01 8.709019E-01
9.562500E-01 9.187500E-01 9.011321E-01
9.625000E-01 9.625000E-01 9.271853E-01
9.187500E-01 9.562500E-01 9.011321E-01
8.125000E-01 7.500000E-01 5.527637E-01
8.750000E-01 7.500000E-01 6.141981E-01
8.750000E-01 8.125000E-01 7.222206E-01
7.875000E-01 7.875000E-01 5.798265E-01
8.312500E-01 7.937500E-01 6.467229E-01
8.375000E-01 8.375000E-01 7.157066E-01
7.937500E-01 8.312500E-01 6.467229E-01
9.375000E-01 7.500000E-01 6.520293E-01
1.000000E+00 7.500000E-01 6.648033E-01
1.000000E+00 8.125000E-01 7.817259E-01
9.125000E-01 7.875000E-01 7.106138E-01
9.562500E-01 7.937500E-01 7.425506E-01
9.625000E-01 8.375000E-01 8.146120E-01
9.187500E-01 8.312500E-01 7.848392E-01
5.625000E-01 6.250000E-01 7.019134E-02
6.250000E-01 6.250000E-01 1.376853E-01
6.250000E-01 6.875000E-01 1.998880E-01
5.375000E-01 6.625000E-01 5.399537E-02
5.812500E-01 6.687500E-01 1.200360E-01
5.875000E-01 7.125000E-01 1.579935E-01
5.437500E-01 7.062500E-01 7.774731E-02
6.875000E-01 6.250000E-01 1.998880E-01
7.500000E-01 6.250000E-01 2.544092E-01
7.500000E-01 6.875000E-01 3.693449E-01
6.625000E-01 6.625000E-01 2.244672E-01
7.062500E-01 6.687500E-01 2.869340E-01
7.125000E-01 7.125000E-01 3.603473E-01
6.687500E-01 7.062500E-01 2.869340E-01
5.625000E-01 5.000000E-01 -1.123116E-17
6.250000E-01 5.000000E-01 -2.203072E-17
6.250000E-01 5.625000E-01 7.019134E-02
5.375000E-01 5.375000E-01 1.298854E-02
5.812500E-01 5.437500E-01 3.252481E-02
5.875000E-01 5.875000E-01 6.927193E-02
5.437500E-01 5.812500E-01 3.252481E-02
6.875000E-01 5.000000E-01 -3.198365E-17
7.500000E-01 5.000000E-01 -4.070746E-17
7.500000E-01 5.625000E-01 1.296967E-01
6.625000E-01 5.375000E-01 5.399537E-02
7.062500E-01 5.437500E-01 7.774731E-02
7.125000E-01 5.875000E-01 1.579935E-01
6.687500E-01 5.812500E-01 1.200360E-01
8.125000E-01 6.250000E-01 2.991536E-01
8.750000E-01 6.250000E-01 3.324016E-01
8.750000E-01 6.875000E-01 4.825724E-01
7.875000E-01 6.625000E-01 3.607659E-01
8.312500E-01 6.687500E-01 4.101489E-01
8.375000E-01 7.125000E-01 5.078415E-01
7.937500E-01 7.062500E-01 4.524376E-01
9.375000E-01 6.250000E-01 3.528757E-01
1.000000E+00 6.250000E-01 3.597889E-01
1.000000E+00 6.875000E-01 5.223326E-01
9.125000E-01 6.625000E-01 4.421412E-01
9.562500E-01 6.687500E-01 4.709224E-01
9.625000E-01 7.125000E-01 5.780214E-01
9.187500E-01 7.062500E-01 5.490617E-01
8.125000E-01 5.000000E-01 -4.786691E-17
8.750000E-01 5.000000E-01 -5.318686E-17
8.750000E-01 5.625000E-01 1.694569E-01
7.875000E-01 5.375000E-01 8.678190E-02
8.312500E-01 5.437500E-01 1.111335E-01
8.375000E-01 5.875000E-01 2.226620E-01
7.937500E-01 5.812500E-01 1.892727E-01
9.375000E-01 5.000000E-01 -5.646287E-17
1.000000E+00 5.000000E-01 -5.756904E-17
1.000000E+00 5.625000E-01 1.834188E-01
9.125000E-01 5.375000E-01 1.063567E-01
9.562500E-01 5.437500E-01 1.276006E-01
9.625000E-01 5.875000E-01 2.534323E-01
9.187500E-01 5.812500E-01 2.296944E-01
0.000000E+00 3.750000E-01 3.597889E-01
6.250000E-02 3.750000E-01 3.528757E-01
[...]
CELL_DATA 896
SCALARS sol float 1
LOOKUP_TABLE default
-8.730425E-01
-8.769187E-01
-8.964397E-01
-8.413318E-01
-9.004545E-01
-8.448806E-01
-9.144120E-01
-8.179347E-01
-8.149627E-01
-9.004545E-01
-8.448806E-01
-8.146353E-01
-9.282690E-01
-7.728045E-01
-7.727675E-01
-9.144120E-01
-8.769187E-01
-8.146353E-01
-7.714030E-01
-9.282690E-01
-7.540064E-01
-7.265819E-01
-7.456841E-01
-8.964397E-01
-8.730425E-01
-7.714030E-01
-8.149627E-01
-7.414968E-01
-7.035258E-01
-6.833497E-01
-6.872501E-01
-8.413318E-01
-7.456841E-01
-7.414968E-01
-7.727675E-01
-6.887319E-01
-6.638530E-01
-6.263095E-01
-6.602042E-01
-8.179347E-01
-6.872501E-01
-6.887319E-01
-7.540064E-01
-6.472209E-01
-6.088101E-01
-5.830773E-01
-5.914427E-01
-6.037186E-01
-7.728045E-01
-6.638530E-01
-6.602042E-01
-6.472209E-01
-7.035258E-01
-5.982150E-01
-5.523244E-01
-5.135444E-01
-5.274337E-01
-5.521728E-01
-7.265819E-01
-6.088101E-01
-6.037186E-01
-5.982150E-01
-6.833497E-01
-5.401794E-01
-5.009258E-01
-5.287757E-01
-4.927676E-01
-4.461087E-01
-4.998062E-01
-5.523244E-01
-5.914427E-01
-5.521728E-01
-5.401794E-01
-6.263095E-01
-4.933163E-01
-4.249921E-01
-4.576479E-01
-4.230275E-01
-3.896231E-01
-4.419019E-01
-5.009258E-01
-5.287757E-01
-5.274337E-01
-4.998062E-01
-4.933163E-01
-5.830773E-01
-4.321767E-01
-3.817599E-01
-4.052630E-01
-4.231408E-01
-3.159373E-01
-4.018314E-01
-4.249921E-01
-4.576479E-01
-4.927676E-01
-4.419019E-01
-4.321767E-01
-5.135444E-01
-3.939727E-01
-3.102990E-01
-3.441234E-01
-3.596731E-01
-2.594517E-01
-2.778809E-01
-3.342683E-01
-3.817599E-01
-4.052630E-01
-4.231408E-01
-4.230275E-01
-4.018314E-01
-3.939727E-01
-4.461087E-01
-3.320787E-01
-2.491594E-01
-2.787854E-01
-3.108712E-01
-1.761019E-01
-2.018029E-01
-3.027197E-01
-3.102990E-01
-3.441234E-01
-3.596731E-01
-3.896231E-01
-3.342683E-01
-3.320787E-01
-2.890945E-01
-2.355532E-01
-1.799061E-01
-2.347895E-01
-2.513255E-01
-1.565095E-01
-9.771947E-02
-2.462340E-01
-2.491594E-01
-2.778809E-01
-2.787854E-01
-3.108712E-01
-3.159373E-01
-3.027197E-01
-2.890945E-01
-2.415618E-01
-1.568912E-01
-9.803285E-02
-1.693073E-01
-1.948399E-01
-7.812709E-02
-3.657987E-02
-1.991910E-01
-1.799061E-01
-2.355532E-01
-2.018029E-01
-2.347895E-01
-2.513255E-01
-2.594517E-01
-2.462340E-01
-2.415618E-01
-1.926552E-01
-1.346413E-01
-8.862419E-02
-4.154723E-02
-1.442726E-01
-1.757939E-01
4.253353E-02
-1.559535E-01
-9.803285E-02
-1.568912E-01
-1.565095E-01
-1.693073E-01
-1.948399E-01
-1.761019E-01
-1.991910E-01
-1.926552E-01
-1.540900E-01
-6.637429E-02
-3.213856E-02
3.545223E-02
-7.746796E-02
-1.137952E-01
1.036731E-01
7.798576E-02
-1.110363E-01
-4.154723E-02
-8.862419E-02
-1.346413E-01
-7.812709E-02
-1.442726E-01
-1.757939E-01
-9.771947E-02
-1.559535E-01
-1.540900E-01
-1.108578E-01
-3.423573E-02
3.704450E-02
9.193785E-02
-6.603667E-02
-9.227517E-02
1.881506E-01
1.545506E-01
-8.667484E-02
3.545223E-02
-3.213856E-02
-6.637429E-02
-3.657987E-02
-7.746796E-02
-1.137952E-01
-1.110363E-01
-1.108578E-01
-8.927152E-02
2.892730E-02
9.353012E-02
6.597180E-02
1.685027E-01
-2.280445E-02
-4.451660E-02
2.035758E-01
2.655467E-01
-4.510927E-02
9.193785E-02
7.798576E-02
3.704450E-02
-3.423573E-02
4.253353E-02
-6.603667E-02
-9.227517E-02
-8.667484E-02
-8.927152E-02
-5.337499E-02
7.215953E-02
1.677508E-01
1.290627E-01
2.438510E-01
2.591577E-02
-2.171215E-02
2.786675E-01
3.220323E-01
-3.339567E-02
1.685027E-01
9.353012E-02
1.545506E-01
6.597180E-02
2.892730E-02
1.036731E-01
-2.280445E-02
-4.451660E-02
-4.510927E-02
-5.337499E-02
-3.586098E-02
6.914800E-02
1.352504E-01
1.743561E-01
2.415068E-01
3.049906E-01
4.391423E-02
1.799846E-02
3.945290E-01
-9.998562E-03
2.438510E-01
1.677508E-01
2.035758E-01
1.290627E-01
7.215953E-02
1.881506E-01
2.591577E-02
-2.171215E-02
-3.339567E-02
-3.586098E-02
-1.588166E-02
1.218125E-01
1.911262E-01
2.370294E-01
2.847391E-01
3.758062E-01
8.392622E-02
4.139557E-02
4.510146E-01
4.219798E-01
1.084160E-02
3.049906E-01
2.415068E-01
1.743561E-01
2.786675E-01
1.352504E-01
6.914800E-02
2.655467E-01
4.391423E-02
1.799846E-02
-9.998562E-03
-1.588166E-02
-5.883100E-03
1.185923E-01
1.806998E-01
2.476118E-01
3.472347E-01
4.190384E-01
8.140756E-02
3.423872E-02
5.237588E-01
4.873751E-01
1.517112E-02
3.758062E-01
2.847391E-01
2.370294E-01
3.220323E-01
1.911262E-01
1.218125E-01
8.392622E-02
4.139557E-02
1.084160E-02
-5.883100E-03
4.329513E-03
1.593058E-01
2.040969E-01
3.047762E-01
4.083743E-01
3.566895E-01
4.912584E-01
1.093042E-01
5.732936E-02
5.326685E-01
5.883857E-01
2.601272E-02
4.190384E-01
4.219798E-01
3.472347E-01
2.476118E-01
3.945290E-01
1.806998E-01
1.185923E-01
8.140756E-02
3.423872E-02
1.517112E-02
4.329513E-03
4.329513E-03
1.525364E-01
2.470771E-01
3.281733E-01
4.668543E-01
4.077841E-01
5.486107E-01
9.238284E-02
4.477385E-02
5.930374E-01
6.316180E-01
1.517112E-02
4.912584E-01
4.083743E-01
4.873751E-01
3.566895E-01
3.047762E-01
4.510146E-01
2.040969E-01
1.593058E-01
1.093042E-01
5.732936E-02
2.601272E-02
4.329513E-03
-5.883100E-03
1.873468E-01
3.035627E-01
2.370964E-01
3.941828E-01
4.568093E-01
5.348707E-01
6.050964E-01
9.238284E-02
5.732936E-02
6.864610E-01
1.084160E-02
5.486107E-01
4.668543E-01
5.326685E-01
4.077841E-01
3.281733E-01
5.237588E-01
2.470771E-01
1.525364E-01
9.238284E-02
4.477385E-02
1.517112E-02
-5.883100E-03
-1.588166E-02
1.873468E-01
3.388754E-01
2.661117E-01
4.306231E-01
5.043476E-01
5.582678E-01
6.589471E-01
1.093042E-01
3.423872E-02
7.296933E-01
7.017312E-01
-9.998562E-03
6.050964E-01
5.348707E-01
4.568093E-01
5.930374E-01
3.941828E-01
3.035627E-01
5.883857E-01
2.370964E-01
1.873468E-01
9.238284E-02
5.732936E-02
1.084160E-02
-1.588166E-02
-3.586098E-02
1.525364E-01
2.370964E-01
3.114051E-01
3.999264E-01
4.917627E-01
6.045616E-01
6.823442E-01
8.140756E-02
4.139557E-02
7.796295E-01
7.460012E-01
-3.339567E-02
6.589471E-01
5.582678E-01
5.043476E-01
6.316180E-01
4.306231E-01
3.388754E-01
2.661117E-01
1.873468E-01
1.093042E-01
3.423872E-02
-9.998562E-03
-3.586098E-02
-5.337499E-02
1.593058E-01
2.470771E-01
3.388754E-01
3.999264E-01
5.342257E-01
6.610472E-01
5.931044E-01
7.392245E-01
8.392622E-02
1.799846E-02
7.806673E-01
8.216484E-01
-4.510927E-02
6.823442E-01
7.017312E-01
6.045616E-01
4.917627E-01
6.864610E-01
3.999264E-01
3.114051E-01
2.370964E-01
1.525364E-01
8.140756E-02
4.139557E-02
-3.339567E-02
-5.337499E-02
-8.927152E-02
1.185923E-01
2.040969E-01
3.035627E-01
4.306231E-01
5.342257E-01
6.948834E-01
6.244241E-01
7.698495E-01
4.391423E-02
-2.171215E-02
8.171228E-01
8.450455E-01
-8.667484E-02
7.392245E-01
6.610472E-01
7.460012E-01
5.931044E-01
5.342257E-01
7.296933E-01
3.999264E-01
3.388754E-01
2.470771E-01
1.593058E-01
8.392622E-02
1.799846E-02
-4.510927E-02
-8.927152E-02
-1.108578E-01
1.218125E-01
1.806998E-01
3.281733E-01
4.917627E-01
3.941828E-01
5.931044E-01
6.697175E-01
7.468053E-01
8.130817E-01
2.591577E-02
-4.451660E-02
8.738856E-01
-1.110363E-01
7.698495E-01
6.948834E-01
7.806673E-01
6.244241E-01
5.342257E-01
7.796295E-01
4.306231E-01
3.035627E-01
2.040969E-01
1.185923E-01
4.391423E-02
-2.171215E-02
-8.667484E-02
-1.108578E-01
-1.540900E-01
6.914800E-02
1.911262E-01
3.047762E-01
5.043476E-01
4.077841E-01
6.045616E-01
6.948834E-01
7.468053E-01
8.417692E-01
-2.280445E-02
-9.227517E-02
8.972827E-01
8.746504E-01
-1.559535E-01
8.130817E-01
7.468053E-01
6.697175E-01
8.171228E-01
5.931044E-01
4.917627E-01
8.216484E-01
3.941828E-01
3.281733E-01
1.806998E-01
1.218125E-01
2.591577E-02
-4.451660E-02
-1.110363E-01
-1.540900E-01
-1.926552E-01
7.215953E-02
2.476118E-01
1.352504E-01
3.566895E-01
4.568093E-01
5.582678E-01
6.610472E-01
7.698495E-01
8.417692E-01
-6.603667E-02
-1.137952E-01
9.168087E-01
8.910554E-01
-1.991910E-01
8.417692E-01
7.468053E-01
6.948834E-01
8.450455E-01
6.045616E-01
5.043476E-01
4.077841E-01
3.047762E-01
1.911262E-01
6.914800E-02
-2.280445E-02
-9.227517E-02
-1.559535E-01
-1.926552E-01
-2.415618E-01
2.892730E-02
2.370294E-01
1.290627E-01
3.472347E-01
4.668543E-01
5.348707E-01
6.823442E-01
8.130817E-01
7.392245E-01
8.746504E-01
-7.746796E-02
-1.757939E-01
9.098165E-01
9.298226E-01
-2.462340E-01
8.417692E-01
8.746504E-01
7.698495E-01
6.610472E-01
8.738856E-01
5.582678E-01
4.568093E-01
3.566895E-01
2.476118E-01
1.352504E-01
7.215953E-02
-6.603667E-02
-1.137952E-01
-1.991910E-01
-2.415618E-01
-2.890945E-01
6.597180E-02
-3.423573E-02
1.743561E-01
2.847391E-01
4.083743E-01
5.486107E-01
6.589471E-01
8.171228E-01
7.460012E-01
8.738856E-01
-1.442726E-01
-1.948399E-01
9.168087E-01
9.298226E-01
-3.027197E-01
8.746504E-01
8.130817E-01
8.910554E-01
7.392245E-01
6.823442E-01
8.972827E-01
5.348707E-01
4.668543E-01
3.472347E-01
2.370294E-01
1.290627E-01
2.892730E-02
-7.746796E-02
-1.757939E-01
-2.462340E-01
-2.890945E-01
-3.320787E-01
3.704450E-02
-6.637429E-02
1.677508E-01
2.415068E-01
4.190384E-01
6.050964E-01
4.912584E-01
7.017312E-01
7.806673E-01
8.450455E-01
8.972827E-01
-1.693073E-01
-2.513255E-01
-3.342683E-01
8.738856E-01
8.171228E-01
9.098165E-01
7.460012E-01
6.589471E-01
9.168087E-01
5.486107E-01
4.083743E-01
2.847391E-01
1.743561E-01
6.597180E-02
-3.423573E-02
-1.442726E-01
-1.948399E-01
-3.027197E-01
-3.320787E-01
-3.939727E-01
9.353012E-02
-3.213856E-02
-1.346413E-01
2.438510E-01
3.758062E-01
5.930374E-01
4.873751E-01
6.864610E-01
7.796295E-01
8.216484E-01
-2.347895E-01
-3.108712E-01
-4.018314E-01
8.972827E-01
8.450455E-01
7.806673E-01
9.168087E-01
7.017312E-01
6.050964E-01
9.298226E-01
4.912584E-01
4.190384E-01
2.415068E-01
1.677508E-01
3.704450E-02
-6.637429E-02
-1.693073E-01
-2.513255E-01
-3.342683E-01
-3.939727E-01
-4.321767E-01
9.193785E-02
-8.862419E-02
-1.568912E-01
3.049906E-01
1.685027E-01
4.219798E-01
5.326685E-01
6.316180E-01
7.296933E-01
-2.787854E-01
-3.596731E-01
-4.419019E-01
8.216484E-01
7.796295E-01
9.298226E-01
6.864610E-01
5.930374E-01
4.873751E-01
3.758062E-01
2.438510E-01
9.353012E-02
-3.213856E-02
-1.346413E-01
-2.347895E-01
-3.108712E-01
-4.018314E-01
-4.321767E-01
-4.933163E-01
3.545223E-02
-9.803285E-02
-2.355532E-01
2.786675E-01
1.545506E-01
3.945290E-01
5.237588E-01
5.883857E-01
-3.441234E-01
-4.231408E-01
-4.998062E-01
7.296933E-01
6.316180E-01
5.326685E-01
4.219798E-01
3.049906E-01
1.685027E-01
9.193785E-02
-8.862419E-02
-1.568912E-01
-2.787854E-01
-3.596731E-01
-4.419019E-01
-4.933163E-01
-5.401794E-01
7.798576E-02
-4.154723E-02
-1.799061E-01
-2.491594E-01
2.035758E-01
3.220323E-01
4.510146E-01
-4.052630E-01
-4.576479E-01
-5.521728E-01
5.883857E-01
5.237588E-01
3.945290E-01
2.786675E-01
1.545506E-01
3.545223E-02
-9.803285E-02
-2.355532E-01
-3.441234E-01
-4.231408E-01
-4.998062E-01
-5.401794E-01
-5.982150E-01
4.253353E-02
-7.812709E-02
-2.018029E-01
-3.102990E-01
1.881506E-01
2.655467E-01
-4.249921E-01
-5.287757E-01
-6.037186E-01
4.510146E-01
3.220323E-01
2.035758E-01
7.798576E-02
-4.154723E-02
-1.799061E-01
-2.491594E-01
-4.052630E-01
-4.576479E-01
-5.521728E-01
-5.982150E-01
-6.472209E-01
1.036731E-01
-3.657987E-02
-1.565095E-01
-2.778809E-01
-3.817599E-01
-5.009258E-01
-5.523244E-01
-6.602042E-01
2.655467E-01
1.881506E-01
4.253353E-02
-7.812709E-02
-2.018029E-01
-3.102990E-01
-4.249921E-01
-5.287757E-01
-6.037186E-01
-6.472209E-01
-6.887319E-01
-9.771947E-02
-1.761019E-01
-3.159373E-01
-4.230275E-01
-5.274337E-01
-6.088101E-01
-6.872501E-01
1.036731E-01
-3.657987E-02
-1.565095E-01
-2.778809E-01
-3.817599E-01
-5.009258E-01
-5.523244E-01
-6.602042E-01
-6.887319E-01
-7.414968E-01
-2.594517E-01
-3.896231E-01
-4.927676E-01
-5.914427E-01
-6.638530E-01
-7.456841E-01
-9.771947E-02
-1.761019E-01
-3.159373E-01
-4.230275E-01
-5.274337E-01
-6.088101E-01
-6.872501E-01
-7.414968E-01
-7.714030E-01
-4.461087E-01
-5.135444E-01
-6.263095E-01
-7.035258E-01
-7.727675E-01
-2.594517E-01
-3.896231E-01
-4.927676E-01
-5.914427E-01
-6.638530E-01
-7.456841E-01
-7.714030E-01
-8.146353E-01
-5.830773E-01
-6.833497E-01
-7.540064E-01
-8.149627E-01
-4.461087E-01
-5.135444E-01
-6.263095E-01
-7.035258E-01
-7.727675E-01
-8.146353E-01
-8.448806E-01
-7.265819E-01
-7.728045E-01
-8.413318E-01
-5.830773E-01
-6.833497E-01
-7.540064E-01
-8.149627E-01
-8.448806E-01
-8.769187E-01
-8.179347E-01
-8.730425E-01
-7.265819E-01
-7.728045E-01
-8.413318E-01
-8.769187E-01
-9.004545E-01
-8.964397E-01
-8.179347E-01
-8.730425E-01
-9.004545E-01
-9.144120E-01
-8.964397E-01
-9.144120E-01
-9.282690E-01
-9.282690E-01
