# vtk DataFile Version 2.0
Grille
ASCII
DATASET POLYDATA
POINTS 481 float
0.000000E+00 8.750000E-01 -6.032111E-01
6.250000E-02 8.750000E-01 -5.916206E-01
1.250000E-01 8.750000E-01 -5.572944E-01
1.250000E-01 9.375000E-01 -5.916206E-01
1.250000E-01 1.000000E+00 -6.032111E-01
6.250000E-02 1.000000E+00 -6.403655E-01
0.000000E+00 1.000000E+00 -6.529110E-01
0.000000E+00 9.375000E-01 -6.403655E-01
3.750000E-02 9.125000E-01 -6.240418E-01
8.125000E-02 9.187500E-01 -6.112866E-01
8.750000E-02 9.625000E-01 -6.240418E-01
4.375000E-02 9.562500E-01 -6.406543E-01
1.875000E-01 8.750000E-01 -5.015517E-01
2.500000E-01 8.750000E-01 -4.265347E-01
2.500000E-01 9.375000E-01 -4.528068E-01
2.500000E-01 1.000000E+00 -4.616778E-01
1.875000E-01 1.000000E+00 -5.428756E-01
1.625000E-01 9.125000E-01 -5.482744E-01
2.062500E-01 9.187500E-01 -5.037122E-01
2.125000E-01 9.625000E-01 -5.091880E-01
1.687500E-01 9.562500E-01 -5.579766E-01
0.000000E+00 7.500000E-01 -4.616778E-01
6.250000E-02 7.500000E-01 -4.528068E-01
1.250000E-01 7.500000E-01 -4.265347E-01
1.250000E-01 8.125000E-01 -5.015517E-01
0.000000E+00 8.125000E-01 -5.428756E-01
3.750000E-02 7.875000E-01 -5.091880E-01
8.125000E-02 7.937500E-01 -5.037122E-01
8.750000E-02 8.375000E-01 -5.482744E-01
4.375000E-02 8.312500E-01 -5.579766E-01
1.875000E-01 7.500000E-01 -3.838711E-01
2.500000E-01 7.500000E-01 -3.264555E-01
2.500000E-01 8.125000E-01 -3.838711E-01
1.625000E-01 7.875000E-01 -4.473654E-01
2.062500E-01 7.937500E-01 -4.150687E-01
2.125000E-01 8.375000E-01 -4.473654E-01
1.687500E-01 8.312500E-01 -4.859686E-01
3.125000E-01 8.750000E-01 -3.351261E-01
3.750000E-01 8.750000E-01 -2.308389E-01
3.750000E-01 9.375000E-01 -2.450573E-01
3.750000E-01 1.000000E+00 -2.498582E-01
3.125000E-01 1.000000E+00 -3.627379E-01
2.875000E-01 9.125000E-01 -3.890372E-01
3.312500E-01 9.187500E-01 -3.194521E-01
3.375000E-01 9.625000E-01 -3.168148E-01
2.937500E-01 9.562500E-01 -3.903520E-01
4.375000E-01 8.750000E-01 -1.176806E-01
5.000000E-01 8.750000E-01 -3.693603E-17
5.000000E-01 9.375000E-01 -3.921108E-17
5.000000E-01 1.000000E+00 -3.997927E-17
4.375000E-01 1.000000E+00 -1.273766E-01
4.125000E-01 9.125000E-01 -1.705725E-01
4.562500E-01 9.187500E-01 -8.655838E-02
4.625000E-01 9.625000E-01 -7.620952E-02
4.187500E-01 9.562500E-01 -1.632998E-01
3.125000E-01 7.500000E-01 -2.564944E-01
3.750000E-01 7.500000E-01 -1.766764E-01
3.750000E-01 8.125000E-01 -2.077495E-01
2.875000E-01 7.875000E-01 -3.174355E-01
3.312500E-01 7.937500E-01 -2.632348E-01
3.375000E-01 8.375000E-01 -2.783491E-01
2.937500E-01 8.312500E-01 -3.399763E-01
4.375000E-01 7.500000E-01 -9.006887E-02
5.000000E-01 7.500000E-01 -2.826961E-17
5.000000E-01 8.125000E-01 -3.324155E-17
4.125000E-01 7.875000E-01 -1.391789E-01
4.562500E-01 7.937500E-01 -7.132581E-02
4.625000E-01 8.375000E-01 -6.695662E-02
4.187500E-01 8.312500E-01 -1.422257E-01
0.000000E+00 6.250000E-01 -2.498582E-01
6.250000E-02 6.250000E-01 -2.450573E-01
1.250000E-01 6.250000E-01 -2.308389E-01
1.250000E-01 6.875000E-01 -3.351261E-01
0.000000E+00 6.875000E-01 -3.627379E-01
3.750000E-02 6.625000E-01 -3.168148E-01
8.125000E-02 6.687500E-01 -3.194521E-01
8.750000E-02 7.125000E-01 -3.890372E-01
4.375000E-02 7.062500E-01 -3.903520E-01
1.875000E-01 6.250000E-01 -2.077495E-01
2.500000E-01 6.250000E-01 -1.766764E-01
2.500000E-01 6.875000E-01 -2.564944E-01
1.625000E-01 6.625000E-01 -2.783491E-01
2.062500E-01 6.687500E-01 -2.632348E-01
2.125000E-01 7.125000E-01 -3.174355E-01
1.687500E-01 7.062500E-01 -3.399763E-01
0.000000E+00 5.000000E-01 3.997927E-17
6.250000E-02 5.000000E-01 3.921108E-17
1.250000E-01 5.000000E-01 3.693603E-17
1.250000E-01 5.625000E-01 -1.176806E-01
0.000000E+00 5.625000E-01 -1.273766E-01
3.750000E-02 5.375000E-01 -7.620952E-02
8.125000E-02 5.437500E-01 -8.655838E-02
8.750000E-02 5.875000E-01 -1.705725E-01
4.375000E-02 5.812500E-01 -1.632998E-01
1.875000E-01 5.000000E-01 3.324155E-17
2.500000E-01 5.000000E-01 2.826961E-17
2.500000E-01 5.625000E-01 -9.006887E-02
1.625000E-01 5.375000E-01 -6.695662E-02
2.062500E-01 5.437500E-01 -7.132581E-02
2.125000E-01 5.875000E-01 -1.391789E-01
1.687500E-01 5.812500E-01 -1.422257E-01
3.125000E-01 6.250000E-01 -1.388138E-01
3.750000E-01 6.250000E-01 -9.561660E-02
3.750000E-01 6.875000E-01 -1.388138E-01
2.875000E-01 6.625000E-01 -1.975072E-01
3.312500E-01 6.687500E-01 -1.669424E-01
3.375000E-01 7.125000E-01 -1.975072E-01
2.937500E-01 7.062500E-01 -2.378423E-01
4.375000E-01 6.250000E-01 -4.874492E-02
5.000000E-01 6.250000E-01 -1.529940E-17
5.000000E-01 6.875000E-01 -2.221129E-17
4.125000E-01 6.625000E-01 -8.659661E-02
4.562500E-01 6.687500E-01 -4.523452E-02
4.625000E-01 7.125000E-01 -4.751017E-02
4.187500E-01 7.062500E-01 -9.949893E-02
3.125000E-01 5.000000E-01 2.221129E-17
3.750000E-01 5.000000E-01 1.529940E-17
3.750000E-01 5.625000E-01 -4.874492E-02
2.875000E-01 5.375000E-01 -4.751017E-02
3.312500E-01 5.437500E-01 -4.523452E-02
3.375000E-01 5.875000E-01 -8.659661E-02
2.937500E-01 5.812500E-01 -9.949893E-02
4.375000E-01 5.000000E-01 7.799568E-18
5.000000E-01 5.000000E-01 2.448024E-33
5.000000E-01 5.625000E-01 -7.799568E-18
4.125000E-01 5.375000E-01 -2.083074E-02
4.562500E-01 5.437500E-01 -1.225669E-02
4.625000E-01 5.875000E-01 -2.083074E-02
4.187500E-01 5.812500E-01 -4.162438E-02
5.625000E-01 8.750000E-01 1.176806E-01
6.250000E-01 8.750000E-01 2.308389E-01
6.250000E-01 9.375000E-01 2.450573E-01
6.250000E-01 1.000000E+00 2.498582E-01
5.625000E-01 1.000000E+00 1.273766E-01
5.375000E-01 9.125000E-01 7.386022E-02
5.812500E-01 9.187500E-01 1.595131E-01
5.875000E-01 9.625000E-01 1.759980E-01
5.437500E-01 9.562500E-01 8.861323E-02
6.875000E-01 8.750000E-01 3.351261E-01
7.500000E-01 8.750000E-01 4.265347E-01
7.500000E-01 9.375000E-01 4.528068E-01
7.500000E-01 1.000000E+00 4.616778E-01
6.875000E-01 1.000000E+00 3.627379E-01
6.625000E-01 9.125000E-01 3.070484E-01
7.062500E-01 9.187500E-01 3.813001E-01
7.125000E-01 9.625000E-01 4.014114E-01
6.687500E-01 9.562500E-01 3.270357E-01
5.625000E-01 7.500000E-01 9.006887E-02
6.250000E-01 7.500000E-01 1.766764E-01
6.250000E-01 8.125000E-01 2.077495E-01
5.375000E-01 7.875000E-01 6.026637E-02
5.812500E-01 7.937500E-01 1.314419E-01
5.875000E-01 8.375000E-01 1.546294E-01
5.437500E-01 8.312500E-01 7.717751E-02
6.875000E-01 7.500000E-01 2.564944E-01
7.500000E-01 7.500000E-01 3.264555E-01
7.500000E-01 8.125000E-01 3.838711E-01
6.625000E-01 7.875000E-01 2.505367E-01
7.062500E-01 7.937500E-01 3.141988E-01
7.125000E-01 8.375000E-01 3.526744E-01
6.687500E-01 8.312500E-01 2.848311E-01
8.125000E-01 8.750000E-01 5.015517E-01
8.750000E-01 8.750000E-01 5.572944E-01
8.750000E-01 9.375000E-01 5.916206E-01
8.750000E-01 1.000000E+00 6.032111E-01
8.125000E-01 1.000000E+00 5.428756E-01
7.875000E-01 9.125000E-01 4.934913E-01
8.312500E-01 9.187500E-01 5.450377E-01
8.375000E-01 9.625000E-01 5.657136E-01
7.937500E-01 9.562500E-01 5.156700E-01
9.375000E-01 8.750000E-01 5.916206E-01
1.000000E+00 8.750000E-01 6.032111E-01
1.000000E+00 9.375000E-01 6.403655E-01
1.000000E+00 1.000000E+00 6.529110E-01
9.375000E-01 1.000000E+00 6.403655E-01
9.125000E-01 9.125000E-01 6.048046E-01
9.562500E-01 9.187500E-01 6.257982E-01
9.625000E-01 9.625000E-01 6.438910E-01
9.187500E-01 9.562500E-01 6.257982E-01
8.125000E-01 7.500000E-01 3.838711E-01
8.750000E-01 7.500000E-01 4.265347E-01
8.750000E-01 8.125000E-01 5.015517E-01
7.875000E-01 7.875000E-01 4.026650E-01
8.312500E-01 7.937500E-01 4.491218E-01
8.375000E-01 8.375000E-01 4.970280E-01
7.937500E-01 8.312500E-01 4.491218E-01
9.375000E-01 7.500000E-01 4.528068E-01
1.000000E+00 7.500000E-01 4.616778E-01
1.000000E+00 8.125000E-01 5.428756E-01
9.125000E-01 7.875000E-01 4.934913E-01
9.562500E-01 7.937500E-01 5.156700E-01
9.625000E-01 8.375000E-01 5.657136E-01
9.187500E-01 8.312500E-01 5.450377E-01
5.625000E-01 6.250000E-01 4.874492E-02
6.250000E-01 6.250000E-01 9.561660E-02
6.250000E-01 6.875000E-01 1.388138E-01
5.375000E-01 6.625000E-01 3.749751E-02
5.812500E-01 6.687500E-01 8.335991E-02
5.875000E-01 7.125000E-01 1.097198E-01
5.437500E-01 7.062500E-01 5.399222E-02
6.875000E-01 6.250000E-01 1.388138E-01
7.500000E-01 6.250000E-01 1.766764E-01
7.500000E-01 6.875000E-01 2.564944E-01
6.625000E-01 6.625000E-01 1.558830E-01
7.062500E-01 6.687500E-01 1.992635E-01
7.125000E-01 7.125000E-01 2.502460E-01
6.687500E-01 7.062500E-01 1.992635E-01
5.625000E-01 5.000000E-01 -7.799568E-18
6.250000E-01 5.000000E-01 -1.529940E-17
6.250000E-01 5.625000E-01 4.874492E-02
5.375000E-01 5.375000E-01 9.019991E-03
5.812500E-01 5.437500E-01 2.258710E-02
5.875000E-01 5.875000E-01 4.810643E-02
5.437500E-01 5.812500E-01 2.258710E-02
6.875000E-01 5.000000E-01 -2.221129E-17
7.500000E-01 5.000000E-01 -2.826961E-17
7.500000E-01 5.625000E-01 9.006887E-02
6.625000E-01 5.375000E-01 3.749751E-02
7.062500E-01 5.437500E-01 5.399222E-02
7.125000E-01 5.875000E-01 1.097198E-01
6.687500E-01 5.812500E-01 8.335991E-02
8.125000E-01 6.250000E-01 2.077495E-01
8.750000E-01 6.250000E-01 2.308389E-01
8.750000E-01 6.875000E-01 3.351261E-01
7.875000E-01 6.625000E-01 2.505367E-01
8.312500E-01 6.687500E-01 2.848311E-01
8.375000E-01 7.125000E-01 3.526744E-01
7.937500E-01 7.062500E-01 3.141988E-01
9.375000E-01 6.250000E-01 2.450573E-01
1.000000E+00 6.250000E-01 2.498582E-01
1.000000E+00 6.875000E-01 3.627379E-01
9.125000E-01 6.625000E-01 3.070484E-01
9.562500E-01 6.687500E-01 3.270357E-01
9.625000E-01 7.125000E-01 4.014114E-01
9.187500E-01 7.062500E-01 3.813001E-01
8.125000E-01 5.000000E-01 -3.324155E-17
8.750000E-01 5.000000E-01 -3.693603E-17
8.750000E-01 5.625000E-01 1.176806E-01
7.875000E-01 5.375000E-01 6.026637E-02
8.312500E-01 5.437500E-01 7.717751E-02
8.375000E-01 5.875000E-01 1.546294E-01
7.937500E-01 5.812500E-01 1.314419E-01
9.375000E-01 5.000000E-01 -3.921108E-17
1.000000E+00 5.000000E-01 -3.997927E-17
1.000000E+00 5.625000E-01 1.273766E-01
9.125000E-01 5.375000E-01 7.386022E-02
9.562500E-01 5.437500E-01 8.861323E-02
9.625000E-01 5.875000E-01 1.759980E-01
9.187500E-01 5.812500E-01 1.595131E-01
0.000000E+00 3.750000E-01 2.498582E-01
6.250000E-02 3.750000E-01 2.450573E-01
[...]
CELL_DATA 896
SCALARS sol float 1
LOOKUP_TABLE default
-6.062912E-01
-6.089830E-01
-6.225395E-01
-5.842694E-01
-6.253276E-01
-5.867339E-01
-6.350205E-01
-5.680211E-01
-5.659572E-01
-6.253276E-01
-5.867339E-01
-5.657298E-01
-6.446436E-01
-5.366801E-01
-5.366544E-01
-6.350205E-01
-6.089830E-01
-5.657298E-01
-5.357068E-01
-6.446436E-01
-5.236256E-01
-5.045805E-01
-5.178461E-01
-6.225395E-01
-6.062912E-01
-5.357068E-01
-5.659572E-01
-5.149382E-01
-4.885690E-01
-4.745575E-01
-4.772662E-01
-5.842694E-01
-5.178461E-01
-5.149382E-01
-5.366544E-01
-4.782952E-01
-4.610179E-01
-4.349455E-01
-4.584839E-01
-5.680211E-01
-4.772662E-01
-4.782952E-01
-5.236256E-01
-4.494676E-01
-4.227929E-01
-4.049226E-01
-4.107320E-01
-4.192570E-01
-5.366801E-01
-4.610179E-01
-4.584839E-01
-4.494676E-01
-4.885690E-01
-4.154351E-01
-3.835660E-01
-3.566349E-01
-3.662804E-01
-3.834607E-01
-5.045805E-01
-4.227929E-01
-4.192570E-01
-4.154351E-01
-4.745575E-01
-3.751318E-01
-3.478718E-01
-3.672124E-01
-3.422063E-01
-3.098037E-01
-3.470943E-01
-3.835660E-01
-4.107320E-01
-3.834607E-01
-3.751318E-01
-4.349455E-01
-3.425874E-01
-2.951390E-01
-3.178172E-01
-2.937747E-01
-2.705768E-01
-3.068822E-01
-3.478718E-01
-3.672124E-01
-3.662804E-01
-3.470943E-01
-3.425874E-01
-4.049226E-01
-3.001285E-01
-2.651161E-01
-2.814380E-01
-2.938534E-01
-2.194051E-01
-2.790549E-01
-2.951390E-01
-3.178172E-01
-3.422063E-01
-3.068822E-01
-3.001285E-01
-3.566349E-01
-2.735974E-01
-2.154896E-01
-2.389792E-01
-2.497778E-01
-1.801782E-01
-1.929765E-01
-2.321352E-01
-2.651161E-01
-2.814380E-01
-2.938534E-01
-2.937747E-01
-2.790549E-01
-2.735974E-01
-3.098037E-01
-2.306146E-01
-1.730307E-01
-1.936047E-01
-2.158869E-01
-1.222953E-01
-1.401436E-01
-2.102260E-01
-2.154896E-01
-2.389792E-01
-2.497778E-01
-2.705768E-01
-2.321352E-01
-2.306146E-01
-2.007640E-01
-1.635817E-01
-1.249372E-01
-1.630514E-01
-1.745350E-01
-1.086892E-01
-6.786205E-02
-1.709991E-01
-1.730307E-01
-1.929765E-01
-1.936047E-01
-2.158869E-01
-2.194051E-01
-2.102260E-01
-2.007640E-01
-1.677545E-01
-1.089543E-01
-6.807968E-02
-1.175768E-01
-1.353081E-01
-5.425597E-02
-2.540317E-02
-1.383297E-01
-1.249372E-01
-1.635817E-01
-1.401436E-01
-1.630514E-01
-1.745350E-01
-1.801782E-01
-1.709991E-01
-1.677545E-01
-1.337909E-01
-9.350270E-02
-6.154575E-02
-2.885279E-02
-1.001912E-01
-1.220814E-01
2.953774E-02
-1.083031E-01
-6.807968E-02
-1.089543E-01
-1.086892E-01
-1.175768E-01
-1.353081E-01
-1.222953E-01
-1.383297E-01
-1.337909E-01
-1.070090E-01
-4.609414E-02
-2.231887E-02
2.462007E-02
-5.379822E-02
-7.902599E-02
7.199661E-02
5.415782E-02
-7.711002E-02
-2.885279E-02
-6.154575E-02
-9.350270E-02
-5.425597E-02
-1.001912E-01
-1.220814E-01
-6.786205E-02
-1.083031E-01
-1.070090E-01
-7.698604E-02
-2.377527E-02
2.572584E-02
6.384696E-02
-4.585968E-02
-6.408121E-02
1.306626E-01
1.073288E-01
-6.019202E-02
2.462007E-02
-2.231887E-02
-4.609414E-02
-2.540317E-02
-5.379822E-02
-7.902599E-02
-7.711002E-02
-7.698604E-02
-6.199530E-02
2.008879E-02
6.495272E-02
4.581463E-02
1.170180E-01
-1.583672E-02
-3.091490E-02
1.413748E-01
1.844109E-01
-3.132648E-02
6.384696E-02
5.415782E-02
2.572584E-02
-2.377527E-02
2.953774E-02
-4.585968E-02
-6.408121E-02
-6.019202E-02
-6.199530E-02
-3.706668E-02
5.011175E-02
1.164958E-01
8.962860E-02
1.693442E-01
1.799741E-02
-1.507817E-02
1.935228E-01
2.236378E-01
-2.319189E-02
1.170180E-01
6.495272E-02
1.073288E-01
4.581463E-02
2.008879E-02
7.199661E-02
-1.583672E-02
-3.091490E-02
-3.132648E-02
-3.706668E-02
-2.490394E-02
4.802036E-02
9.392572E-02
1.210829E-01
1.677163E-01
2.118031E-01
3.049658E-02
1.249917E-02
2.739837E-01
-6.943579E-03
1.693442E-01
1.164958E-01
1.413748E-01
8.962860E-02
5.011175E-02
1.306626E-01
1.799741E-02
-1.507817E-02
-2.319189E-02
-2.490394E-02
-1.102914E-02
8.459364E-02
1.327291E-01
1.646069E-01
1.977393E-01
2.609815E-01
5.828321E-02
2.874748E-02
3.132106E-01
2.930471E-01
7.529035E-03
2.118031E-01
1.677163E-01
1.210829E-01
1.935228E-01
9.392572E-02
4.802036E-02
1.844109E-01
3.049658E-02
1.249917E-02
-6.943579E-03
-1.102914E-02
-4.085565E-03
8.235732E-02
1.254884E-01
1.719560E-01
2.411398E-01
2.910045E-01
5.653411E-02
2.377734E-02
3.637284E-01
3.384614E-01
1.053570E-02
2.609815E-01
1.977393E-01
1.646069E-01
2.236378E-01
1.327291E-01
8.459364E-02
5.828321E-02
2.874748E-02
7.529035E-03
-4.085565E-03
3.006664E-03
1.106312E-01
1.417367E-01
2.116542E-01
2.835987E-01
2.477058E-01
3.411582E-01
7.590714E-02
3.981282E-02
3.699158E-01
4.086090E-01
1.806473E-02
2.910045E-01
2.930471E-01
2.411398E-01
1.719560E-01
2.739837E-01
1.254884E-01
8.235732E-02
5.653411E-02
2.377734E-02
1.053570E-02
3.006664E-03
3.006664E-03
1.059301E-01
1.715846E-01
2.279025E-01
3.242106E-01
2.831889E-01
3.809870E-01
6.415598E-02
3.109355E-02
4.118394E-01
4.386320E-01
1.053570E-02
3.411582E-01
2.835987E-01
3.384614E-01
2.477058E-01
2.116542E-01
3.132106E-01
1.417367E-01
1.106312E-01
7.590714E-02
3.981282E-02
1.806473E-02
3.006664E-03
-4.085565E-03
1.301045E-01
2.108115E-01
1.646534E-01
2.737433E-01
3.172348E-01
3.714451E-01
4.202139E-01
6.415598E-02
3.981282E-02
4.767182E-01
7.529035E-03
3.809870E-01
3.242106E-01
3.699158E-01
2.831889E-01
2.279025E-01
3.637284E-01
1.715846E-01
1.059301E-01
6.415598E-02
3.109355E-02
1.053570E-02
-4.085565E-03
-1.102914E-02
1.301045E-01
2.353347E-01
1.848034E-01
2.990496E-01
3.502481E-01
3.876934E-01
4.576109E-01
7.590714E-02
2.377734E-02
5.067412E-01
4.873227E-01
-6.943579E-03
4.202139E-01
3.714451E-01
3.172348E-01
4.118394E-01
2.737433E-01
2.108115E-01
4.086090E-01
1.646534E-01
1.301045E-01
6.415598E-02
3.981282E-02
7.529035E-03
-1.102914E-02
-2.490394E-02
1.059301E-01
1.646534E-01
2.162577E-01
2.777320E-01
3.415085E-01
4.198425E-01
4.738592E-01
5.653411E-02
2.874748E-02
5.414198E-01
5.180663E-01
-2.319189E-02
4.576109E-01
3.876934E-01
3.502481E-01
4.386320E-01
2.990496E-01
2.353347E-01
1.848034E-01
1.301045E-01
7.590714E-02
2.377734E-02
-6.943579E-03
-2.490394E-02
-3.706668E-02
1.106312E-01
1.715846E-01
2.353347E-01
2.777320E-01
3.709972E-01
4.590694E-01
4.118859E-01
5.133602E-01
5.828321E-02
1.249917E-02
5.421404E-01
5.706001E-01
-3.132648E-02
4.738592E-01
4.873227E-01
4.198425E-01
3.415085E-01
4.767182E-01
2.777320E-01
2.162577E-01
1.646534E-01
1.059301E-01
5.653411E-02
2.874748E-02
-2.319189E-02
-3.706668E-02
-6.199530E-02
8.235732E-02
1.417367E-01
2.108115E-01
2.990496E-01
3.709972E-01
4.825672E-01
4.336362E-01
5.346279E-01
3.049658E-02
-1.507817E-02
5.674573E-01
5.868484E-01
-6.019202E-02
5.133602E-01
4.590694E-01
5.180663E-01
4.118859E-01
3.709972E-01
5.067412E-01
2.777320E-01
2.353347E-01
1.715846E-01
1.106312E-01
5.828321E-02
1.249917E-02
-3.132648E-02
-6.199530E-02
-7.698604E-02
8.459364E-02
1.254884E-01
2.279025E-01
3.415085E-01
2.737433E-01
4.118859E-01
4.650905E-01
5.186247E-01
5.646509E-01
1.799741E-02
-3.091490E-02
6.068766E-01
-7.711002E-02
5.346279E-01
4.825672E-01
5.421404E-01
4.336362E-01
3.709972E-01
5.414198E-01
2.990496E-01
2.108115E-01
1.417367E-01
8.235732E-02
3.049658E-02
-1.507817E-02
-6.019202E-02
-7.698604E-02
-1.070090E-01
4.802036E-02
1.327291E-01
2.116542E-01
3.502481E-01
2.831889E-01
4.198425E-01
4.825672E-01
5.186247E-01
5.845732E-01
-1.583672E-02
-6.408121E-02
6.231249E-01
6.074078E-01
-1.083031E-01
5.646509E-01
5.186247E-01
4.650905E-01
5.674573E-01
4.118859E-01
3.415085E-01
5.706001E-01
2.737433E-01
2.279025E-01
1.254884E-01
8.459364E-02
1.799741E-02
-3.091490E-02
-7.711002E-02
-1.070090E-01
-1.337909E-01
5.011175E-02
1.719560E-01
9.392572E-02
2.477058E-01
3.172348E-01
3.876934E-01
4.590694E-01
5.346279E-01
5.845732E-01
-4.585968E-02
-7.902599E-02
6.366849E-01
6.188003E-01
-1.383297E-01
5.845732E-01
5.186247E-01
4.825672E-01
5.868484E-01
4.198425E-01
3.502481E-01
2.831889E-01
2.116542E-01
1.327291E-01
4.802036E-02
-1.583672E-02
-6.408121E-02
-1.083031E-01
-1.337909E-01
-1.677545E-01
2.008879E-02
1.646069E-01
8.962860E-02
2.411398E-01
3.242106E-01
3.714451E-01
4.738592E-01
5.646509E-01
5.133602E-01
6.074078E-01
-5.379822E-02
-1.220814E-01
6.318291E-01
6.457225E-01
-1.709991E-01
5.845732E-01
6.074078E-01
5.346279E-01
4.590694E-01
6.068766E-01
3.876934E-01
3.172348E-01
2.477058E-01
1.719560E-01
9.392572E-02
5.011175E-02
-4.585968E-02
-7.902599E-02
-1.383297E-01
-1.677545E-01
-2.007640E-01
4.581463E-02
-2.377527E-02
1.210829E-01
1.977393E-01
2.835987E-01
3.809870E-01
4.576109E-01
5.674573E-01
5.180663E-01
6.068766E-01
-1.001912E-01
-1.353081E-01
6.366849E-01
6.457225E-01
-2.102260E-01
6.074078E-01
5.646509E-01
6.188003E-01
5.133602E-01
4.738592E-01
6.231249E-01
3.714451E-01
3.242106E-01
2.411398E-01
1.646069E-01
8.962860E-02
2.008879E-02
-5.379822E-02
-1.220814E-01
-1.709991E-01
-2.007640E-01
-2.306146E-01
2.572584E-02
-4.609414E-02
1.164958E-01
1.677163E-01
2.910045E-01
4.202139E-01
3.411582E-01
4.873227E-01
5.421404E-01
5.868484E-01
6.231249E-01
-1.175768E-01
-1.745350E-01
-2.321352E-01
6.068766E-01
5.674573E-01
6.318291E-01
5.180663E-01
4.576109E-01
6.366849E-01
3.809870E-01
2.835987E-01
1.977393E-01
1.210829E-01
4.581463E-02
-2.377527E-02
-1.001912E-01
-1.353081E-01
-2.102260E-01
-2.306146E-01
-2.735974E-01
6.495272E-02
-2.231887E-02
-9.350270E-02
1.693442E-01
2.609815E-01
4.118394E-01
3.384614E-01
4.767182E-01
5.414198E-01
5.706001E-01
-1.630514E-01
-2.158869E-01
-2.790549E-01
6.231249E-01
5.868484E-01
5.421404E-01
6.366849E-01
4.873227E-01
4.202139E-01
6.457225E-01
3.411582E-01
2.910045E-01
1.677163E-01
1.164958E-01
2.572584E-02
-4.609414E-02
-1.175768E-01
-1.745350E-01
-2.321352E-01
-2.735974E-01
-3.001285E-01
6.384696E-02
-6.154575E-02
-1.089543E-01
2.118031E-01
1.170180E-01
2.930471E-01
3.699158E-01
4.386320E-01
5.067412E-01
-1.936047E-01
-2.497778E-01
-3.068822E-01
5.706001E-01
5.414198E-01
6.457225E-01
4.767182E-01
4.118394E-01
3.384614E-01
2.609815E-01
1.693442E-01
6.495272E-02
-2.231887E-02
-9.350270E-02
-1.630514E-01
-2.158869E-01
-2.790549E-01
-3.001285E-01
-3.425874E-01
2.462007E-02
-6.807968E-02
-1.635817E-01
1.935228E-01
1.073288E-01
2.739837E-01
3.637284E-01
4.086090E-01
-2.389792E-01
-2.938534E-01
-3.470943E-01
5.067412E-01
4.386320E-01
3.699158E-01
2.930471E-01
2.118031E-01
1.170180E-01
6.384696E-02
-6.154575E-02
-1.089543E-01
-1.936047E-01
-2.497778E-01
-3.068822E-01
-3.425874E-01
-3.751318E-01
5.415782E-02
-2.885279E-02
-1.249372E-01
-1.730307E-01
1.413748E-01
2.236378E-01
3.132106E-01
-2.814380E-01
-3.178172E-01
-3.834607E-01
4.086090E-01
3.637284E-01
2.739837E-01
1.935228E-01
1.073288E-01
2.462007E-02
-6.807968E-02
-1.635817E-01
-2.389792E-01
-2.938534E-01
-3.470943E-01
-3.751318E-01
-4.154351E-01
2.953774E-02
-5.425597E-02
-1.401436E-01
-2.154896E-01
1.306626E-01
1.844109E-01
-2.951390E-01
-3.672124E-01
-4.192570E-01
3.132106E-01
2.236378E-01
1.413748E-01
5.415782E-02
-2.885279E-02
-1.249372E-01
-1.730307E-01
-2.814380E-01
-3.178172E-01
-3.834607E-01
-4.154351E-01
-4.494676E-01
7.199661E-02
-2.540317E-02
-1.086892E-01
-1.929765E-01
-2.651161E-01
-3.478718E-01
-3.835660E-01
-4.584839E-01
1.844109E-01
1.306626E-01
2.953774E-02
-5.425597E-02
-1.401436E-01
-2.154896E-01
-2.951390E-01
-3.672124E-01
-4.192570E-01
-4.494676E-01
-4.782952E-01
-6.786205E-02
-1.222953E-01
-2.194051E-01
-2.937747E-01
-3.662804E-01
-4.227929E-01
-4.772662E-01
7.199661E-02
-2.540317E-02
-1.086892E-01
-1.929765E-01
-2.651161E-01
-3.478718E-01
-3.835660E-01
-4.584839E-01
-4.782952E-01
-5.149382E-01
-1.801782E-01
-2.705768E-01
-3.422063E-01
-4.107320E-01
-4.610179E-01
-5.178461E-01
-6.786205E-02
-1.222953E-01
-2.194051E-01
-2.937747E-01
-3.662804E-01
-4.227929E-01
-4.772662E-01
-5.149382E-01
-5.357068E-01
-3.098037E-01
-3.566349E-01
-4.349455E-01
-4.885690E-01
-5.366544E-01
-1.801782E-01
-2.705768E-01
-3.422063E-01
-4.107320E-01
-4.610179E-01
-5.178461E-01
-5.357068E-01
-5.657298E-01
-4.049226E-01
-4.745575E-01
-5.236256E-01
-5.659572E-01
-3.098037E-01
-3.566349E-01
-4.349455E-01
-4.885690E-01
-5.366544E-01
-5.657298E-01
-5.867339E-01
-5.045805E-01
-5.366801E-01
-5.842694E-01
-4.049226E-01
-4.745575E-01
-5.236256E-01
-5.659572E-01
-5.867339E-01
-6.089830E-01
-5.680211E-01
-6.062912E-01
-5.045805E-01
-5.366801E-01
-5.842694E-01
-6.089830E-01
-6.253276E-01
-6.225395E-01
-5.680211E-01
-6.062912E-01
-6.253276E-01
-6.350205E-01
-6.225395E-01
-6.350205E-01
-6.446436E-01
-6.446436E-01
