# vtk DataFile Version 2.0
Grille
ASCII
DATASET POLYDATA
POINTS 481 float
0.000000E+00 8.750000E-01 -8.072955E-01
6.250000E-02 8.750000E-01 -7.917835E-01
1.250000E-01 8.750000E-01 -7.458437E-01
1.250000E-01 9.375000E-01 -7.917835E-01
1.250000E-01 1.000000E+00 -8.072955E-01
6.250000E-02 1.000000E+00 -8.570203E-01
0.000000E+00 1.000000E+00 -8.738103E-01
0.000000E+00 9.375000E-01 -8.570203E-01
3.750000E-02 9.125000E-01 -8.351739E-01
8.125000E-02 9.187500E-01 -8.181032E-01
8.750000E-02 9.625000E-01 -8.351739E-01
4.375000E-02 9.562500E-01 -8.574068E-01
1.875000E-01 8.750000E-01 -6.712416E-01
2.500000E-01 8.750000E-01 -5.708441E-01
2.500000E-01 9.375000E-01 -6.060049E-01
2.500000E-01 1.000000E+00 -6.178772E-01
1.875000E-01 1.000000E+00 -7.265467E-01
1.625000E-01 9.125000E-01 -7.337720E-01
2.062500E-01 9.187500E-01 -6.741331E-01
2.125000E-01 9.625000E-01 -6.814615E-01
1.687500E-01 9.562500E-01 -7.467567E-01
0.000000E+00 7.500000E-01 -6.178772E-01
6.250000E-02 7.500000E-01 -6.060049E-01
1.250000E-01 7.500000E-01 -5.708441E-01
1.250000E-01 8.125000E-01 -6.712416E-01
0.000000E+00 8.125000E-01 -7.265467E-01
3.750000E-02 7.875000E-01 -6.814615E-01
8.125000E-02 7.937500E-01 -6.741331E-01
8.750000E-02 8.375000E-01 -7.337720E-01
4.375000E-02 8.312500E-01 -7.467567E-01
1.875000E-01 7.500000E-01 -5.137461E-01
2.500000E-01 7.500000E-01 -4.369052E-01
2.500000E-01 8.125000E-01 -5.137461E-01
1.625000E-01 7.875000E-01 -5.987225E-01
2.062500E-01 7.937500E-01 -5.554989E-01
2.125000E-01 8.375000E-01 -5.987225E-01
1.687500E-01 8.312500E-01 -6.503863E-01
3.125000E-01 8.750000E-01 -4.485093E-01
3.750000E-01 8.750000E-01 -3.089386E-01
3.750000E-01 9.375000E-01 -3.279675E-01
3.750000E-01 1.000000E+00 -3.343927E-01
3.125000E-01 1.000000E+00 -4.854630E-01
2.875000E-01 9.125000E-01 -5.206601E-01
3.312500E-01 9.187500E-01 -4.275323E-01
3.375000E-01 9.625000E-01 -4.240028E-01
2.937500E-01 9.562500E-01 -5.224197E-01
4.375000E-01 8.750000E-01 -1.574955E-01
5.000000E-01 8.750000E-01 -4.943259E-17
5.000000E-01 9.375000E-01 -5.247736E-17
5.000000E-01 1.000000E+00 -5.350545E-17
4.375000E-01 1.000000E+00 -1.704719E-01
4.125000E-01 9.125000E-01 -2.282823E-01
4.562500E-01 9.187500E-01 -1.158437E-01
4.625000E-01 9.625000E-01 -1.019935E-01
4.187500E-01 9.562500E-01 -2.185491E-01
3.125000E-01 7.500000E-01 -3.432742E-01
3.750000E-01 7.500000E-01 -2.364514E-01
3.750000E-01 8.125000E-01 -2.780374E-01
2.875000E-01 7.875000E-01 -4.248334E-01
3.312500E-01 7.937500E-01 -3.522950E-01
3.375000E-01 8.375000E-01 -3.725229E-01
2.937500E-01 8.312500E-01 -4.550004E-01
4.375000E-01 7.500000E-01 -1.205419E-01
5.000000E-01 7.500000E-01 -3.783407E-17
5.000000E-01 8.125000E-01 -4.448816E-17
4.125000E-01 7.875000E-01 -1.862673E-01
4.562500E-01 7.937500E-01 -9.545746E-02
4.625000E-01 8.375000E-01 -8.961004E-02
4.187500E-01 8.312500E-01 -1.903449E-01
0.000000E+00 6.250000E-01 -3.343927E-01
6.250000E-02 6.250000E-01 -3.279675E-01
1.250000E-01 6.250000E-01 -3.089386E-01
1.250000E-01 6.875000E-01 -4.485093E-01
0.000000E+00 6.875000E-01 -4.854630E-01
3.750000E-02 6.625000E-01 -4.240028E-01
8.125000E-02 6.687500E-01 -4.275323E-01
8.750000E-02 7.125000E-01 -5.206601E-01
4.375000E-02 7.062500E-01 -5.224197E-01
1.875000E-01 6.250000E-01 -2.780374E-01
2.500000E-01 6.250000E-01 -2.364514E-01
2.500000E-01 6.875000E-01 -3.432742E-01
1.625000E-01 6.625000E-01 -3.725229E-01
2.062500E-01 6.687500E-01 -3.522950E-01
2.125000E-01 7.125000E-01 -4.248334E-01
1.687500E-01 7.062500E-01 -4.550004E-01
0.000000E+00 5.000000E-01 5.350545E-17
6.250000E-02 5.000000E-01 5.247736E-17
1.250000E-01 5.000000E-01 4.943259E-17
1.250000E-01 5.625000E-01 -1.574955E-01
0.000000E+00 5.625000E-01 -1.704719E-01
3.750000E-02 5.375000E-01 -1.019935E-01
8.125000E-02 5.437500E-01 -1.158437E-01
8.750000E-02 5.875000E-01 -2.282823E-01
4.375000E-02 5.812500E-01 -2.185491E-01
1.875000E-01 5.000000E-01 4.448816E-17
2.500000E-01 5.000000E-01 3.783407E-17
2.500000E-01 5.625000E-01 -1.205419E-01
1.625000E-01 5.375000E-01 -8.961004E-02
2.062500E-01 5.437500E-01 -9.545746E-02
2.125000E-01 5.875000E-01 -1.862673E-01
1.687500E-01 5.812500E-01 -1.903449E-01
3.125000E-01 6.250000E-01 -1.857786E-01
3.750000E-01 6.250000E-01 -1.279666E-01
3.750000E-01 6.875000E-01 -1.857786E-01
2.875000E-01 6.625000E-01 -2.643298E-01
3.312500E-01 6.687500E-01 -2.234240E-01
3.375000E-01 7.125000E-01 -2.643298E-01
2.937500E-01 7.062500E-01 -3.183114E-01
4.375000E-01 6.250000E-01 -6.523678E-02
5.000000E-01 6.250000E-01 -2.047565E-17
5.000000E-01 6.875000E-01 -2.972604E-17
4.125000E-01 6.625000E-01 -1.158948E-01
4.562500E-01 6.687500E-01 -6.053871E-02
4.625000E-01 7.125000E-01 -6.358429E-02
4.187500E-01 7.062500E-01 -1.331624E-01
3.125000E-01 5.000000E-01 2.972604E-17
3.750000E-01 5.000000E-01 2.047565E-17
3.750000E-01 5.625000E-01 -6.523678E-02
2.875000E-01 5.375000E-01 -6.358429E-02
3.312500E-01 5.437500E-01 -6.053871E-02
3.375000E-01 5.875000E-01 -1.158948E-01
2.937500E-01 5.812500E-01 -1.331624E-01
4.375000E-01 5.000000E-01 1.043840E-17
5.000000E-01 5.000000E-01 3.276264E-33
5.000000E-01 5.625000E-01 -1.043840E-17
4.125000E-01 5.375000E-01 -2.787840E-02
4.562500E-01 5.437500E-01 -1.640350E-02
4.625000E-01 5.875000E-01 -2.787840E-02
4.187500E-01 5.812500E-01 -5.570715E-02
5.625000E-01 8.750000E-01 1.574955E-01
6.250000E-01 8.750000E-01 3.089386E-01
6.250000E-01 9.375000E-01 3.279675E-01
6.250000E-01 1.000000E+00 3.343927E-01
5.625000E-01 1.000000E+00 1.704719E-01
5.375000E-01 9.125000E-01 9.884934E-02
5.812500E-01 9.187500E-01 2.134811E-01
5.875000E-01 9.625000E-01 2.355434E-01
5.437500E-01 9.562500E-01 1.185937E-01
6.875000E-01 8.750000E-01 4.485093E-01
7.500000E-01 8.750000E-01 5.708441E-01
7.500000E-01 9.375000E-01 6.060049E-01
7.500000E-01 1.000000E+00 6.178772E-01
6.875000E-01 1.000000E+00 4.854630E-01
6.625000E-01 9.125000E-01 4.109321E-01
7.062500E-01 9.187500E-01 5.103054E-01
7.125000E-01 9.625000E-01 5.372209E-01
6.687500E-01 9.562500E-01 4.376817E-01
5.625000E-01 7.500000E-01 1.205419E-01
6.250000E-01 7.500000E-01 2.364514E-01
6.250000E-01 8.125000E-01 2.780374E-01
5.375000E-01 7.875000E-01 8.065628E-02
5.812500E-01 7.937500E-01 1.759127E-01
5.875000E-01 8.375000E-01 2.069451E-01
5.437500E-01 8.312500E-01 1.032890E-01
6.875000E-01 7.500000E-01 3.432742E-01
7.500000E-01 7.500000E-01 4.369052E-01
7.500000E-01 8.125000E-01 5.137461E-01
6.625000E-01 7.875000E-01 3.353007E-01
7.062500E-01 7.937500E-01 4.205017E-01
7.125000E-01 8.375000E-01 4.719948E-01
6.687500E-01 8.312500E-01 3.811980E-01
8.125000E-01 8.750000E-01 6.712416E-01
8.750000E-01 8.750000E-01 7.458437E-01
8.750000E-01 9.375000E-01 7.917835E-01
8.750000E-01 1.000000E+00 8.072955E-01
8.125000E-01 1.000000E+00 7.265467E-01
7.875000E-01 9.125000E-01 6.604541E-01
8.312500E-01 9.187500E-01 7.294402E-01
8.375000E-01 9.625000E-01 7.571114E-01
7.937500E-01 9.562500E-01 6.901366E-01
9.375000E-01 8.750000E-01 7.917835E-01
1.000000E+00 8.750000E-01 8.072955E-01
1.000000E+00 9.375000E-01 8.570203E-01
1.000000E+00 1.000000E+00 8.738103E-01
9.375000E-01 1.000000E+00 8.570203E-01
9.125000E-01 9.125000E-01 8.094280E-01
9.562500E-01 9.187500E-01 8.375245E-01
9.625000E-01 9.625000E-01 8.617386E-01
9.187500E-01 9.562500E-01 8.375245E-01
8.125000E-01 7.500000E-01 5.137461E-01
8.750000E-01 7.500000E-01 5.708441E-01
8.750000E-01 8.125000E-01 6.712416E-01
7.875000E-01 7.875000E-01 5.388986E-01
8.312500E-01 7.937500E-01 6.010731E-01
8.375000E-01 8.375000E-01 6.651875E-01
7.937500E-01 8.312500E-01 6.010731E-01
9.375000E-01 7.500000E-01 6.060049E-01
1.000000E+00 7.500000E-01 6.178772E-01
1.000000E+00 8.125000E-01 7.265467E-01
9.125000E-01 7.875000E-01 6.604541E-01
9.562500E-01 7.937500E-01 6.901366E-01
9.625000E-01 8.375000E-01 7.571114E-01
9.187500E-01 8.312500E-01 7.294402E-01
5.625000E-01 6.250000E-01 6.523678E-02
6.250000E-01 6.250000E-01 1.279666E-01
6.250000E-01 6.875000E-01 1.857786E-01
5.375000E-01 6.625000E-01 5.018403E-02
5.812500E-01 6.687500E-01 1.115631E-01
5.875000E-01 7.125000E-01 1.468413E-01
5.437500E-01 7.062500E-01 7.225941E-02
6.875000E-01 6.250000E-01 1.857786E-01
7.500000E-01 6.250000E-01 2.364514E-01
7.500000E-01 6.875000E-01 3.432742E-01
6.625000E-01 6.625000E-01 2.086228E-01
7.062500E-01 6.687500E-01 2.666804E-01
7.125000E-01 7.125000E-01 3.349117E-01
6.687500E-01 7.062500E-01 2.666804E-01
5.625000E-01 5.000000E-01 -1.043840E-17
6.250000E-01 5.000000E-01 -2.047565E-17
6.250000E-01 5.625000E-01 6.523678E-02
5.375000E-01 5.375000E-01 1.207172E-02
5.812500E-01 5.437500E-01 3.022900E-02
5.875000E-01 5.875000E-01 6.438227E-02
5.437500E-01 5.812500E-01 3.022900E-02
6.875000E-01 5.000000E-01 -2.972604E-17
7.500000E-01 5.000000E-01 -3.783407E-17
7.500000E-01 5.625000E-01 1.205419E-01
6.625000E-01 5.375000E-01 5.018403E-02
7.062500E-01 5.437500E-01 7.225941E-02
7.125000E-01 5.875000E-01 1.468413E-01
6.687500E-01 5.812500E-01 1.115631E-01
8.125000E-01 6.250000E-01 2.780374E-01
8.750000E-01 6.250000E-01 3.089386E-01
8.750000E-01 6.875000E-01 4.485093E-01
7.875000E-01 6.625000E-01 3.353007E-01
8.312500E-01 6.687500E-01 3.811980E-01
8.375000E-01 7.125000E-01 4.719948E-01
7.937500E-01 7.062500E-01 4.205017E-01
9.375000E-01 6.250000E-01 3.279675E-01
1.000000E+00 6.250000E-01 3.343927E-01
1.000000E+00 6.875000E-01 4.854630E-01
9.125000E-01 6.625000E-01 4.109321E-01
9.562500E-01 6.687500E-01 4.376817E-01
9.625000E-01 7.125000E-01 5.372209E-01
9.187500E-01 7.062500E-01 5.103054E-01
8.125000E-01 5.000000E-01 -4.448816E-17
8.750000E-01 5.000000E-01 -4.943259E-17
8.750000E-01 5.625000E-01 1.574955E-01
7.875000E-01 5.375000E-01 8.065628E-02
8.312500E-01 5.437500E-01 1.032890E-01
8.375000E-01 5.875000E-01 2.069451E-01
7.937500E-01 5.812500E-01 1.759127E-01
9.375000E-01 5.000000E-01 -5.247736E-17
1.000000E+00 5.000000E-01 -5.350545E-17
1.000000E+00 5.625000E-01 1.704719E-01
9.125000E-01 5.375000E-01 9.884934E-02
9.562500E-01 5.437500E-01 1.185937E-01
9.625000E-01 5.875000E-01 2.355434E-01
9.187500E-01 5.812500E-01 2.134811E-01
0.000000E+00 3.750000E-01 3.343927E-01
6.250000E-02 3.750000E-01 3.279675E-01
[...]
CELL_DATA 896
SCALARS sol float 1
LOOKUP_TABLE default
-8.114176E-01
-8.150202E-01
-8.331632E-01
-7.819452E-01
-8.368946E-01
-7.852435E-01
-8.498670E-01
-7.601996E-01
-7.574374E-01
-8.368946E-01
-7.852435E-01
-7.571331E-01
-8.627458E-01
-7.182550E-01
-7.182206E-01
-8.498670E-01
-8.150202E-01
-7.571331E-01
-7.169525E-01
-8.627458E-01
-7.007838E-01
-6.752951E-01
-6.930489E-01
-8.331632E-01
-8.114176E-01
-7.169525E-01
-7.574374E-01
-6.891572E-01
-6.538665E-01
-6.351145E-01
-6.387396E-01
-7.819452E-01
-6.930489E-01
-6.891572E-01
-7.182206E-01
-6.401168E-01
-6.169940E-01
-5.821006E-01
-6.136027E-01
-7.601996E-01
-6.387396E-01
-6.401168E-01
-7.007838E-01
-6.015359E-01
-5.658363E-01
-5.419200E-01
-5.496949E-01
-5.611042E-01
-7.182550E-01
-6.169940E-01
-6.136027E-01
-6.015359E-01
-6.538665E-01
-5.559892E-01
-5.133378E-01
-4.772952E-01
-4.902040E-01
-5.131969E-01
-6.752951E-01
-5.658363E-01
-5.611042E-01
-5.559892E-01
-6.351145E-01
-5.020500E-01
-4.655672E-01
-4.914513E-01
-4.579849E-01
-4.146195E-01
-4.645267E-01
-5.133378E-01
-5.496949E-01
-5.131969E-01
-5.020500E-01
-5.821006E-01
-4.584949E-01
-3.949934E-01
-4.253442E-01
-3.931675E-01
-3.621210E-01
-4.107096E-01
-4.655672E-01
-4.914513E-01
-4.902040E-01
-4.645267E-01
-4.584949E-01
-5.419200E-01
-4.016709E-01
-3.548128E-01
-3.766569E-01
-3.932728E-01
-2.936364E-01
-3.734675E-01
-3.949934E-01
-4.253442E-01
-4.579849E-01
-4.107096E-01
-4.016709E-01
-4.772952E-01
-3.661636E-01
-2.883961E-01
-3.198330E-01
-3.342851E-01
-2.411379E-01
-2.582663E-01
-3.106735E-01
-3.548128E-01
-3.766569E-01
-3.932728E-01
-3.931675E-01
-3.734675E-01
-3.661636E-01
-4.146195E-01
-3.086385E-01
-2.315721E-01
-2.591070E-01
-2.889279E-01
-1.636715E-01
-1.875583E-01
-2.813518E-01
-2.883961E-01
-3.198330E-01
-3.342851E-01
-3.621210E-01
-3.106735E-01
-3.086385E-01
-2.686884E-01
-2.189263E-01
-1.672072E-01
-2.182165E-01
-2.335854E-01
-1.454621E-01
-9.082181E-02
-2.288533E-01
-2.315721E-01
-2.582663E-01
-2.591070E-01
-2.889279E-01
-2.936364E-01
-2.813518E-01
-2.686884E-01
-2.245108E-01
-1.458168E-01
-9.111307E-02
-1.573566E-01
-1.810869E-01
-7.261238E-02
-3.399783E-02
-1.851308E-01
-1.672072E-01
-2.189263E-01
-1.875583E-01
-2.182165E-01
-2.335854E-01
-2.411379E-01
-2.288533E-01
-2.245108E-01
-1.790564E-01
-1.251375E-01
-8.236852E-02
-3.861456E-02
-1.340889E-01
-1.633852E-01
3.953124E-02
-1.449453E-01
-9.111307E-02
-1.458168E-01
-1.454621E-01
-1.573566E-01
-1.810869E-01
-1.636715E-01
-1.851308E-01
-1.790564E-01
-1.432133E-01
-6.168917E-02
-2.987001E-02
3.294978E-02
-7.199977E-02
-1.057628E-01
9.635522E-02
7.248102E-02
-1.031986E-01
-3.861456E-02
-8.236852E-02
-1.251375E-01
-7.261238E-02
-1.340889E-01
-1.633852E-01
-9.082181E-02
-1.449453E-01
-1.432133E-01
-1.030327E-01
-3.181915E-02
3.442966E-02
8.544829E-02
-6.137538E-02
-8.576180E-02
1.748697E-01
1.436414E-01
-8.055678E-02
3.294978E-02
-2.987001E-02
-6.168917E-02
-3.399783E-02
-7.199977E-02
-1.057628E-01
-1.031986E-01
-1.030327E-01
-8.297016E-02
2.688543E-02
8.692817E-02
6.131508E-02
1.566087E-01
-2.119476E-02
-4.137433E-02
1.892061E-01
2.468027E-01
-4.192517E-02
8.544829E-02
7.248102E-02
3.442966E-02
-3.181915E-02
3.953124E-02
-6.137538E-02
-8.576180E-02
-8.055678E-02
-8.297016E-02
-4.960744E-02
6.706605E-02
1.559099E-01
1.199526E-01
2.266384E-01
2.408647E-02
-2.017957E-02
2.589973E-01
2.993012E-01
-3.103839E-02
1.566087E-01
8.692817E-02
1.436414E-01
6.131508E-02
2.688543E-02
9.635522E-02
-2.119476E-02
-4.137433E-02
-4.192517E-02
-4.960744E-02
-3.332968E-02
6.426709E-02
1.257036E-01
1.620489E-01
2.244597E-01
2.834624E-01
4.081448E-02
1.672801E-02
3.666806E-01
-9.292799E-03
2.266384E-01
1.559099E-01
1.892061E-01
1.199526E-01
6.706605E-02
1.748697E-01
2.408647E-02
-2.017957E-02
-3.103839E-02
-3.332968E-02
-1.476063E-02
1.132142E-01
1.776353E-01
2.202984E-01
2.646404E-01
3.492794E-01
7.800217E-02
3.847361E-02
4.191791E-01
3.921937E-01
1.007633E-02
2.834624E-01
2.244597E-01
1.620489E-01
2.589973E-01
1.257036E-01
6.426709E-02
2.468027E-01
4.081448E-02
1.672801E-02
-9.292799E-03
-1.476063E-02
-5.467834E-03
1.102213E-01
1.679448E-01
2.301338E-01
3.227247E-01
3.894600E-01
7.566129E-02
3.182193E-02
4.867885E-01
4.529731E-01
1.410024E-02
3.492794E-01
2.646404E-01
2.202984E-01
2.993012E-01
1.776353E-01
1.132142E-01
7.800217E-02
3.847361E-02
1.007633E-02
-5.467834E-03
4.023908E-03
1.480610E-01
1.896904E-01
2.832632E-01
3.795486E-01
3.315120E-01
4.565823E-01
1.015888E-01
5.328268E-02
4.950693E-01
5.468537E-01
2.417657E-02
3.894600E-01
3.921937E-01
3.227247E-01
2.301338E-01
3.666806E-01
1.679448E-01
1.102213E-01
7.566129E-02
3.182193E-02
1.410024E-02
4.023908E-03
4.023908E-03
1.417694E-01
2.296368E-01
3.050087E-01
4.339007E-01
3.790001E-01
5.098863E-01
8.586187E-02
4.161342E-02
5.511770E-01
5.870343E-01
1.410024E-02
4.565823E-01
3.795486E-01
4.529731E-01
3.315120E-01
2.832632E-01
4.191791E-01
1.896904E-01
1.480610E-01
1.015888E-01
5.328268E-02
2.417657E-02
4.023908E-03
-5.467834E-03
1.741227E-01
2.821353E-01
2.203606E-01
3.663588E-01
4.245648E-01
4.971161E-01
5.623848E-01
8.586187E-02
5.328268E-02
6.380062E-01
1.007633E-02
5.098863E-01
4.339007E-01
4.950693E-01
3.790001E-01
3.050087E-01
4.867885E-01
2.296368E-01
1.417694E-01
8.586187E-02
4.161342E-02
1.410024E-02
-5.467834E-03
-1.476063E-02
1.741227E-01
3.149554E-01
2.473279E-01
4.002270E-01
4.687475E-01
5.188617E-01
6.124344E-01
1.015888E-01
3.182193E-02
6.781868E-01
6.521985E-01
-9.292799E-03
5.623848E-01
4.971161E-01
4.245648E-01
5.511770E-01
3.663588E-01
2.821353E-01
5.468537E-01
2.203606E-01
1.741227E-01
8.586187E-02
5.328268E-02
1.007633E-02
-1.476063E-02
-3.332968E-02
1.417694E-01
2.203606E-01
2.894241E-01
3.716970E-01
4.570510E-01
5.618878E-01
6.341800E-01
7.566129E-02
3.847361E-02
7.245982E-01
6.933437E-01
-3.103839E-02
6.124344E-01
5.188617E-01
4.687475E-01
5.870343E-01
4.002270E-01
3.149554E-01
2.473279E-01
1.741227E-01
1.015888E-01
3.182193E-02
-9.292799E-03
-3.332968E-02
-4.960744E-02
1.480610E-01
2.296368E-01
3.149554E-01
3.716970E-01
4.965166E-01
6.143863E-01
5.512393E-01
6.870453E-01
7.800217E-02
1.672801E-02
7.255628E-01
7.636512E-01
-4.192517E-02
6.341800E-01
6.521985E-01
5.618878E-01
4.570510E-01
6.380062E-01
3.716970E-01
2.894241E-01
2.203606E-01
1.417694E-01
7.566129E-02
3.847361E-02
-3.103839E-02
-4.960744E-02
-8.297016E-02
1.102213E-01
1.896904E-01
2.821353E-01
4.002270E-01
4.965166E-01
6.458341E-01
5.803483E-01
7.155085E-01
4.081448E-02
-2.017957E-02
7.594451E-01
7.853968E-01
-8.055678E-02
6.870453E-01
6.143863E-01
6.933437E-01
5.512393E-01
4.965166E-01
6.781868E-01
3.716970E-01
3.149554E-01
2.296368E-01
1.480610E-01
7.800217E-02
1.672801E-02
-4.192517E-02
-8.297016E-02
-1.030327E-01
1.132142E-01
1.679448E-01
3.050087E-01
4.570510E-01
3.663588E-01
5.512393E-01
6.224445E-01
6.940910E-01
7.556892E-01
2.408647E-02
-4.137433E-02
8.122011E-01
-1.031986E-01
7.155085E-01
6.458341E-01
7.255628E-01
5.803483E-01
4.965166E-01
7.245982E-01
4.002270E-01
2.821353E-01
1.896904E-01
1.102213E-01
4.081448E-02
-2.017957E-02
-8.055678E-02
-1.030327E-01
-1.432133E-01
6.426709E-02
1.776353E-01
2.832632E-01
4.687475E-01
3.790001E-01
5.618878E-01
6.458341E-01
6.940910E-01
7.823518E-01
-2.119476E-02
-8.576180E-02
8.339467E-01
8.129120E-01
-1.449453E-01
7.556892E-01
6.940910E-01
6.224445E-01
7.594451E-01
5.512393E-01
4.570510E-01
7.636512E-01
3.663588E-01
3.050087E-01
1.679448E-01
1.132142E-01
2.408647E-02
-4.137433E-02
-1.031986E-01
-1.432133E-01
-1.790564E-01
6.706605E-02
2.301338E-01
1.257036E-01
3.315120E-01
4.245648E-01
5.188617E-01
6.143863E-01
7.155085E-01
7.823518E-01
-6.137538E-02
-1.057628E-01
8.520944E-01
8.281590E-01
-1.851308E-01
7.823518E-01
6.940910E-01
6.458341E-01
7.853968E-01
5.618878E-01
4.687475E-01
3.790001E-01
2.832632E-01
1.776353E-01
6.426709E-02
-2.119476E-02
-8.576180E-02
-1.449453E-01
-1.790564E-01
-2.245108E-01
2.688543E-02
2.202984E-01
1.199526E-01
3.227247E-01
4.339007E-01
4.971161E-01
6.341800E-01
7.556892E-01
6.870453E-01
8.129120E-01
-7.199977E-02
-1.633852E-01
8.455958E-01
8.641897E-01
-2.288533E-01
7.823518E-01
8.129120E-01
7.155085E-01
6.143863E-01
8.122011E-01
5.188617E-01
4.245648E-01
3.315120E-01
2.301338E-01
1.257036E-01
6.706605E-02
-6.137538E-02
-1.057628E-01
-1.851308E-01
-2.245108E-01
-2.686884E-01
6.131508E-02
-3.181915E-02
1.620489E-01
2.646404E-01
3.795486E-01
5.098863E-01
6.124344E-01
7.594451E-01
6.933437E-01
8.122011E-01
-1.340889E-01
-1.810869E-01
8.520944E-01
8.641897E-01
-2.813518E-01
8.129120E-01
7.556892E-01
8.281590E-01
6.870453E-01
6.341800E-01
8.339467E-01
4.971161E-01
4.339007E-01
3.227247E-01
2.202984E-01
1.199526E-01
2.688543E-02
-7.199977E-02
-1.633852E-01
-2.288533E-01
-2.686884E-01
-3.086385E-01
3.442966E-02
-6.168917E-02
1.559099E-01
2.244597E-01
3.894600E-01
5.623848E-01
4.565823E-01
6.521985E-01
7.255628E-01
7.853968E-01
8.339467E-01
-1.573566E-01
-2.335854E-01
-3.106735E-01
8.122011E-01
7.594451E-01
8.455958E-01
6.933437E-01
6.124344E-01
8.520944E-01
5.098863E-01
3.795486E-01
2.646404E-01
1.620489E-01
6.131508E-02
-3.181915E-02
-1.340889E-01
-1.810869E-01
-2.813518E-01
-3.086385E-01
-3.661636E-01
8.692817E-02
-2.987001E-02
-1.251375E-01
2.266384E-01
3.492794E-01
5.511770E-01
4.529731E-01
6.380062E-01
7.245982E-01
7.636512E-01
-2.182165E-01
-2.889279E-01
-3.734675E-01
8.339467E-01
7.853968E-01
7.255628E-01
8.520944E-01
6.521985E-01
5.623848E-01
8.641897E-01
4.565823E-01
3.894600E-01
2.244597E-01
1.559099E-01
3.442966E-02
-6.168917E-02
-1.573566E-01
-2.335854E-01
-3.106735E-01
-3.661636E-01
-4.016709E-01
8.544829E-02
-8.236852E-02
-1.458168E-01
2.834624E-01
1.566087E-01
3.921937E-01
4.950693E-01
5.870343E-01
6.781868E-01
-2.591070E-01
-3.342851E-01
-4.107096E-01
7.636512E-01
7.245982E-01
8.641897E-01
6.380062E-01
5.511770E-01
4.529731E-01
3.492794E-01
2.266384E-01
8.692817E-02
-2.987001E-02
-1.251375E-01
-2.182165E-01
-2.889279E-01
-3.734675E-01
-4.016709E-01
-4.584949E-01
3.294978E-02
-9.111307E-02
-2.189263E-01
2.589973E-01
1.436414E-01
3.666806E-01
4.867885E-01
5.468537E-01
-3.198330E-01
-3.932728E-01
-4.645267E-01
6.781868E-01
5.870343E-01
4.950693E-01
3.921937E-01
2.834624E-01
1.566087E-01
8.544829E-02
-8.236852E-02
-1.458168E-01
-2.591070E-01
-3.342851E-01
-4.107096E-01
-4.584949E-01
-5.020500E-01
7.248102E-02
-3.861456E-02
-1.672072E-01
-2.315721E-01
1.892061E-01
2.993012E-01
4.191791E-01
-3.766569E-01
-4.253442E-01
-5.131969E-01
5.468537E-01
4.867885E-01
3.666806E-01
2.589973E-01
1.436414E-01
3.294978E-02
-9.111307E-02
-2.189263E-01
-3.198330E-01
-3.932728E-01
-4.645267E-01
-5.020500E-01
-5.559892E-01
3.953124E-02
-7.261238E-02
-1.875583E-01
-2.883961E-01
1.748697E-01
2.468027E-01
-3.949934E-01
-4.914513E-01
-5.611042E-01
4.191791E-01
2.993012E-01
1.892061E-01
7.248102E-02
-3.861456E-02
-1.672072E-01
-2.315721E-01
-3.766569E-01
-4.253442E-01
-5.131969E-01
-5.559892E-01
-6.015359E-01
9.635522E-02
-3.399783E-02
-1.454621E-01
-2.582663E-01
-3.548128E-01
-4.655672E-01
-5.133378E-01
-6.136027E-01
2.468027E-01
1.748697E-01
3.953124E-02
-7.261238E-02
-1.875583E-01
-2.883961E-01
-3.949934E-01
-4.914513E-01
-5.611042E-01
-6.015359E-01
-6.401168E-01
-9.082181E-02
-1.636715E-01
-2.936364E-01
-3.931675E-01
-4.902040E-01
-5.658363E-01
-6.387396E-01
9.635522E-02
-3.399783E-02
-1.454621E-01
-2.582663E-01
-3.548128E-01
-4.655672E-01
-5.133378E-01
-6.136027E-01
-6.401168E-01
-6.891572E-01
-2.411379E-01
-3.621210E-01
-4.579849E-01
-5.496949E-01
-6.169940E-01
-6.930489E-01
-9.082181E-02
-1.636715E-01
-2.936364E-01
-3.931675E-01
-4.902040E-01
-5.658363E-01
-6.387396E-01
-6.891572E-01
-7.169525E-01
-4.146195E-01
-4.772952E-01
-5.821006E-01
-6.538665E-01
-7.182206E-01
-2.411379E-01
-3.621210E-01
-4.579849E-01
-5.496949E-01
-6.169940E-01
-6.930489E-01
-7.169525E-01
-7.571331E-01
-5.419200E-01
-6.351145E-01
-7.007838E-01
-7.574374E-01
-4.146195E-01
-4.772952E-01
-5.821006E-01
-6.538665E-01
-7.182206E-01
-7.571331E-01
-7.852435E-01
-6.752951E-01
-7.182550E-01
-7.819452E-01
-5.419200E-01
-6.351145E-01
-7.007838E-01
-7.574374E-01
-7.852435E-01
-8.150202E-01
-7.601996E-01
-8.114176E-01
-6.752951E-01
-7.182550E-01
-7.819452E-01
-8.150202E-01
-8.368946E-01
-8.331632E-01
-7.601996E-01
-8.114176E-01
-8.368946E-01
-8.498670E-01
-8.331632E-01
-8.498670E-01
-8.627458E-01
-8.627458E-01
