# vtk DataFile Version 2.0
Grille
ASCII
DATASET POLYDATA
POINTS 481 float
0.000000E+00 8.750000E-01 -6.759924E-01
6.250000E-02 8.750000E-01 -6.630034E-01
1.250000E-01 8.750000E-01 -6.245355E-01
1.250000E-01 9.375000E-01 -6.630034E-01
1.250000E-01 1.000000E+00 -6.759924E-01
6.250000E-02 1.000000E+00 -7.176297E-01
0.000000E+00 1.000000E+00 -7.316889E-01
0.000000E+00 9.375000E-01 -7.176297E-01
3.750000E-02 9.125000E-01 -6.993365E-01
8.125000E-02 9.187500E-01 -6.850422E-01
8.750000E-02 9.625000E-01 -6.993365E-01
4.375000E-02 9.562500E-01 -7.179533E-01
1.875000E-01 8.750000E-01 -5.620671E-01
2.500000E-01 8.750000E-01 -4.779988E-01
2.500000E-01 9.375000E-01 -5.074408E-01
2.500000E-01 1.000000E+00 -5.173822E-01
1.875000E-01 1.000000E+00 -6.083771E-01
1.625000E-01 9.125000E-01 -6.144272E-01
2.062500E-01 9.187500E-01 -5.644883E-01
2.125000E-01 9.625000E-01 -5.706247E-01
1.687500E-01 9.562500E-01 -6.253000E-01
0.000000E+00 7.500000E-01 -5.173822E-01
6.250000E-02 7.500000E-01 -5.074408E-01
1.250000E-01 7.500000E-01 -4.779988E-01
1.250000E-01 8.125000E-01 -5.620671E-01
0.000000E+00 8.125000E-01 -6.083771E-01
3.750000E-02 7.875000E-01 -5.706247E-01
8.125000E-02 7.937500E-01 -5.644883E-01
8.750000E-02 8.375000E-01 -6.144272E-01
4.375000E-02 8.312500E-01 -6.253000E-01
1.875000E-01 7.500000E-01 -4.301875E-01
2.500000E-01 7.500000E-01 -3.658444E-01
2.500000E-01 8.125000E-01 -4.301875E-01
1.625000E-01 7.875000E-01 -5.013429E-01
2.062500E-01 7.937500E-01 -4.651494E-01
2.125000E-01 8.375000E-01 -5.013429E-01
1.687500E-01 8.312500E-01 -5.446038E-01
3.125000E-01 8.750000E-01 -3.755612E-01
3.750000E-01 8.750000E-01 -2.586911E-01
3.750000E-01 9.375000E-01 -2.746250E-01
3.750000E-01 1.000000E+00 -2.800052E-01
3.125000E-01 1.000000E+00 -4.065046E-01
2.875000E-01 9.125000E-01 -4.359770E-01
3.312500E-01 9.187500E-01 -3.579961E-01
3.375000E-01 9.625000E-01 -3.550406E-01
2.937500E-01 9.562500E-01 -4.374504E-01
4.375000E-01 8.750000E-01 -1.318796E-01
5.000000E-01 8.750000E-01 -4.139259E-17
5.000000E-01 9.375000E-01 -4.394214E-17
5.000000E-01 1.000000E+00 -4.480302E-17
4.375000E-01 1.000000E+00 -1.427454E-01
4.125000E-01 9.125000E-01 -1.911532E-01
4.562500E-01 9.187500E-01 -9.700220E-02
4.625000E-01 9.625000E-01 -8.540469E-02
4.187500E-01 9.562500E-01 -1.830030E-01
3.125000E-01 7.500000E-01 -2.874421E-01
3.750000E-01 7.500000E-01 -1.979936E-01
3.750000E-01 8.125000E-01 -2.328158E-01
2.875000E-01 7.875000E-01 -3.557361E-01
3.312500E-01 7.937500E-01 -2.949958E-01
3.375000E-01 8.375000E-01 -3.119337E-01
2.937500E-01 8.312500E-01 -3.809966E-01
4.375000E-01 7.500000E-01 -1.009363E-01
5.000000E-01 7.500000E-01 -3.168052E-17
5.000000E-01 8.125000E-01 -3.725235E-17
4.125000E-01 7.875000E-01 -1.559718E-01
4.562500E-01 7.937500E-01 -7.993172E-02
4.625000E-01 8.375000E-01 -7.503536E-02
4.187500E-01 8.312500E-01 -1.593861E-01
0.000000E+00 6.250000E-01 -2.800052E-01
6.250000E-02 6.250000E-01 -2.746250E-01
1.250000E-01 6.250000E-01 -2.586911E-01
1.250000E-01 6.875000E-01 -3.755612E-01
0.000000E+00 6.875000E-01 -4.065046E-01
3.750000E-02 6.625000E-01 -3.550406E-01
8.125000E-02 6.687500E-01 -3.579961E-01
8.750000E-02 7.125000E-01 -4.359770E-01
4.375000E-02 7.062500E-01 -4.374504E-01
1.875000E-01 6.250000E-01 -2.328158E-01
2.500000E-01 6.250000E-01 -1.979936E-01
2.500000E-01 6.875000E-01 -2.874421E-01
1.625000E-01 6.625000E-01 -3.119337E-01
2.062500E-01 6.687500E-01 -2.949958E-01
2.125000E-01 7.125000E-01 -3.557361E-01
1.687500E-01 7.062500E-01 -3.809966E-01
0.000000E+00 5.000000E-01 4.480302E-17
6.250000E-02 5.000000E-01 4.394214E-17
1.250000E-01 5.000000E-01 4.139259E-17
1.250000E-01 5.625000E-01 -1.318796E-01
0.000000E+00 5.625000E-01 -1.427454E-01
3.750000E-02 5.375000E-01 -8.540469E-02
8.125000E-02 5.437500E-01 -9.700220E-02
8.750000E-02 5.875000E-01 -1.911532E-01
4.375000E-02 5.812500E-01 -1.830030E-01
1.875000E-01 5.000000E-01 3.725235E-17
2.500000E-01 5.000000E-01 3.168052E-17
2.500000E-01 5.625000E-01 -1.009363E-01
1.625000E-01 5.375000E-01 -7.503536E-02
2.062500E-01 5.437500E-01 -7.993172E-02
2.125000E-01 5.875000E-01 -1.559718E-01
1.687500E-01 5.812500E-01 -1.593861E-01
3.125000E-01 6.250000E-01 -1.555626E-01
3.750000E-01 6.250000E-01 -1.071534E-01
3.750000E-01 6.875000E-01 -1.555626E-01
2.875000E-01 6.625000E-01 -2.213377E-01
3.312500E-01 6.687500E-01 -1.870851E-01
3.375000E-01 7.125000E-01 -2.213377E-01
2.937500E-01 7.062500E-01 -2.665395E-01
4.375000E-01 6.250000E-01 -5.462631E-02
5.000000E-01 6.250000E-01 -1.714537E-17
5.000000E-01 6.875000E-01 -2.489123E-17
4.125000E-01 6.625000E-01 -9.704504E-02
4.562500E-01 6.687500E-01 -5.069236E-02
4.625000E-01 7.125000E-01 -5.324258E-02
4.187500E-01 7.062500E-01 -1.115041E-01
3.125000E-01 5.000000E-01 2.489123E-17
3.750000E-01 5.000000E-01 1.714537E-17
3.750000E-01 5.625000E-01 -5.462631E-02
2.875000E-01 5.375000E-01 -5.324258E-02
3.312500E-01 5.437500E-01 -5.069236E-02
3.375000E-01 5.875000E-01 -9.704504E-02
2.937500E-01 5.812500E-01 -1.115041E-01
4.375000E-01 5.000000E-01 8.740636E-18
5.000000E-01 5.000000E-01 2.743394E-33
5.000000E-01 5.625000E-01 -8.740636E-18
4.125000E-01 5.375000E-01 -2.334410E-02
4.562500E-01 5.437500E-01 -1.373554E-02
4.625000E-01 5.875000E-01 -2.334410E-02
4.187500E-01 5.812500E-01 -4.664663E-02
5.625000E-01 8.750000E-01 1.318796E-01
6.250000E-01 8.750000E-01 2.586911E-01
6.250000E-01 9.375000E-01 2.746250E-01
6.250000E-01 1.000000E+00 2.800052E-01
5.625000E-01 1.000000E+00 1.427454E-01
5.375000E-01 9.125000E-01 8.277193E-02
5.812500E-01 9.187500E-01 1.787594E-01
5.875000E-01 9.625000E-01 1.972333E-01
5.437500E-01 9.562500E-01 9.930498E-02
6.875000E-01 8.750000E-01 3.755612E-01
7.500000E-01 8.750000E-01 4.779988E-01
7.500000E-01 9.375000E-01 5.074408E-01
7.500000E-01 1.000000E+00 5.173822E-01
6.875000E-01 1.000000E+00 4.065046E-01
6.625000E-01 9.125000E-01 3.440958E-01
7.062500E-01 9.187500E-01 4.273064E-01
7.125000E-01 9.625000E-01 4.498443E-01
6.687500E-01 9.562500E-01 3.664947E-01
5.625000E-01 7.500000E-01 1.009363E-01
6.250000E-01 7.500000E-01 1.979936E-01
6.250000E-01 8.125000E-01 2.328158E-01
5.375000E-01 7.875000E-01 6.753789E-02
5.812500E-01 7.937500E-01 1.473012E-01
5.875000E-01 8.375000E-01 1.732864E-01
5.437500E-01 8.312500E-01 8.648947E-02
6.875000E-01 7.500000E-01 2.874421E-01
7.500000E-01 7.500000E-01 3.658444E-01
7.500000E-01 8.125000E-01 4.301875E-01
6.625000E-01 7.875000E-01 2.807655E-01
7.062500E-01 7.937500E-01 3.521089E-01
7.125000E-01 8.375000E-01 3.952269E-01
6.687500E-01 8.312500E-01 3.191978E-01
8.125000E-01 8.750000E-01 5.620671E-01
8.750000E-01 8.750000E-01 6.245355E-01
8.750000E-01 9.375000E-01 6.630034E-01
8.750000E-01 1.000000E+00 6.759924E-01
8.125000E-01 1.000000E+00 6.083771E-01
7.875000E-01 9.125000E-01 5.530341E-01
8.312500E-01 9.187500E-01 6.108000E-01
8.375000E-01 9.625000E-01 6.339705E-01
7.937500E-01 9.562500E-01 5.778889E-01
9.375000E-01 8.750000E-01 6.630034E-01
1.000000E+00 8.750000E-01 6.759924E-01
1.000000E+00 9.375000E-01 7.176297E-01
1.000000E+00 1.000000E+00 7.316889E-01
9.375000E-01 1.000000E+00 7.176297E-01
9.125000E-01 9.125000E-01 6.777781E-01
9.562500E-01 9.187500E-01 7.013048E-01
9.625000E-01 9.625000E-01 7.215806E-01
9.187500E-01 9.562500E-01 7.013048E-01
8.125000E-01 7.500000E-01 4.301875E-01
8.750000E-01 7.500000E-01 4.779988E-01
8.750000E-01 8.125000E-01 5.620671E-01
7.875000E-01 7.875000E-01 4.512491E-01
8.312500E-01 7.937500E-01 5.033112E-01
8.375000E-01 8.375000E-01 5.569976E-01
7.937500E-01 8.312500E-01 5.033112E-01
9.375000E-01 7.500000E-01 5.074408E-01
1.000000E+00 7.500000E-01 5.173822E-01
1.000000E+00 8.125000E-01 6.083771E-01
9.125000E-01 7.875000E-01 5.530341E-01
9.562500E-01 7.937500E-01 5.778889E-01
9.625000E-01 8.375000E-01 6.339705E-01
9.187500E-01 8.312500E-01 6.108000E-01
5.625000E-01 6.250000E-01 5.462631E-02
6.250000E-01 6.250000E-01 1.071534E-01
6.250000E-01 6.875000E-01 1.555626E-01
5.375000E-01 6.625000E-01 4.202182E-02
5.812500E-01 6.687500E-01 9.341781E-02
5.875000E-01 7.125000E-01 1.229582E-01
5.437500E-01 7.062500E-01 6.050673E-02
6.875000E-01 6.250000E-01 1.555626E-01
7.500000E-01 6.250000E-01 1.979936E-01
7.500000E-01 6.875000E-01 2.874421E-01
6.625000E-01 6.625000E-01 1.746912E-01
7.062500E-01 6.687500E-01 2.233060E-01
7.125000E-01 7.125000E-01 2.804397E-01
6.687500E-01 7.062500E-01 2.233060E-01
5.625000E-01 5.000000E-01 -8.740636E-18
6.250000E-01 5.000000E-01 -1.714537E-17
6.250000E-01 5.625000E-01 5.462631E-02
5.375000E-01 5.375000E-01 1.010831E-02
5.812500E-01 5.437500E-01 2.531238E-02
5.875000E-01 5.875000E-01 5.391078E-02
5.437500E-01 5.812500E-01 2.531238E-02
6.875000E-01 5.000000E-01 -2.489123E-17
7.500000E-01 5.000000E-01 -3.168052E-17
7.500000E-01 5.625000E-01 1.009363E-01
6.625000E-01 5.375000E-01 4.202182E-02
7.062500E-01 5.437500E-01 6.050673E-02
7.125000E-01 5.875000E-01 1.229582E-01
6.687500E-01 5.812500E-01 9.341781E-02
8.125000E-01 6.250000E-01 2.328158E-01
8.750000E-01 6.250000E-01 2.586911E-01
8.750000E-01 6.875000E-01 3.755612E-01
7.875000E-01 6.625000E-01 2.807655E-01
8.312500E-01 6.687500E-01 3.191978E-01
8.375000E-01 7.125000E-01 3.952269E-01
7.937500E-01 7.062500E-01 3.521089E-01
9.375000E-01 6.250000E-01 2.746250E-01
1.000000E+00 6.250000E-01 2.800052E-01
1.000000E+00 6.875000E-01 4.065046E-01
9.125000E-01 6.625000E-01 3.440958E-01
9.562500E-01 6.687500E-01 3.664947E-01
9.625000E-01 7.125000E-01 4.498443E-01
9.187500E-01 7.062500E-01 4.273064E-01
8.125000E-01 5.000000E-01 -3.725235E-17
8.750000E-01 5.000000E-01 -4.139259E-17
8.750000E-01 5.625000E-01 1.318796E-01
7.875000E-01 5.375000E-01 6.753789E-02
8.312500E-01 5.437500E-01 8.648947E-02
8.375000E-01 5.875000E-01 1.732864E-01
7.937500E-01 5.812500E-01 1.473012E-01
9.375000E-01 5.000000E-01 -4.394214E-17
1.000000E+00 5.000000E-01 -4.480302E-17
1.000000E+00 5.625000E-01 1.427454E-01
9.125000E-01 5.375000E-01 8.277193E-02
9.562500E-01 5.437500E-01 9.930498E-02
9.625000E-01 5.875000E-01 1.972333E-01
9.187500E-01 5.812500E-01 1.787594E-01
0.000000E+00 3.750000E-01 2.800052E-01
6.250000E-02 3.750000E-01 2.746250E-01
[...]
CELL_DATA 896
SCALARS sol float 1
LOOKUP_TABLE default
-6.794441E-01
-6.824607E-01
-6.976528E-01
-6.547652E-01
-7.007773E-01
-6.575270E-01
-7.116398E-01
-6.365565E-01
-6.342435E-01
-7.007773E-01
-6.575270E-01
-6.339887E-01
-7.224240E-01
-6.014339E-01
-6.014052E-01
-7.116398E-01
-6.824607E-01
-6.339887E-01
-6.003433E-01
-7.224240E-01
-5.868043E-01
-5.654613E-01
-5.803275E-01
-6.976528E-01
-6.794441E-01
-6.003433E-01
-6.342435E-01
-5.770688E-01
-5.475179E-01
-5.318159E-01
-5.348514E-01
-6.547652E-01
-5.803275E-01
-5.770688E-01
-6.014052E-01
-5.360046E-01
-5.166426E-01
-4.874245E-01
-5.138029E-01
-6.365565E-01
-5.348514E-01
-5.360046E-01
-5.868043E-01
-5.036987E-01
-4.738055E-01
-4.537791E-01
-4.602894E-01
-4.698431E-01
-6.014339E-01
-5.166426E-01
-5.138029E-01
-5.036987E-01
-5.475179E-01
-4.655599E-01
-4.298457E-01
-3.996652E-01
-4.104745E-01
-4.297276E-01
-5.654613E-01
-4.738055E-01
-4.698431E-01
-4.655599E-01
-5.318159E-01
-4.203938E-01
-3.898448E-01
-4.115189E-01
-3.834957E-01
-3.471834E-01
-3.889734E-01
-4.298457E-01
-4.602894E-01
-4.297276E-01
-4.203938E-01
-4.874245E-01
-3.839227E-01
-3.307495E-01
-3.561638E-01
-3.292205E-01
-3.032236E-01
-3.439095E-01
-3.898448E-01
-4.115189E-01
-4.104745E-01
-3.889734E-01
-3.839227E-01
-4.537791E-01
-3.363409E-01
-2.971040E-01
-3.153953E-01
-3.293087E-01
-2.458777E-01
-3.127247E-01
-3.307495E-01
-3.561638E-01
-3.834957E-01
-3.439095E-01
-3.363409E-01
-3.996652E-01
-3.066087E-01
-2.414898E-01
-2.678135E-01
-2.799151E-01
-2.019179E-01
-2.162604E-01
-2.601438E-01
-2.971040E-01
-3.153953E-01
-3.293087E-01
-3.292205E-01
-3.127247E-01
-3.066087E-01
-3.471834E-01
-2.584398E-01
-1.939079E-01
-2.169643E-01
-2.419351E-01
-1.370510E-01
-1.570528E-01
-2.355911E-01
-2.414898E-01
-2.678135E-01
-2.799151E-01
-3.032236E-01
-2.601438E-01
-2.584398E-01
-2.249874E-01
-1.833189E-01
-1.400117E-01
-1.827246E-01
-1.955937E-01
-1.218033E-01
-7.605003E-02
-1.916313E-01
-1.939079E-01
-2.162604E-01
-2.169643E-01
-2.419351E-01
-2.458777E-01
-2.355911E-01
-2.249874E-01
-1.879951E-01
-1.221003E-01
-7.629392E-02
-1.317632E-01
-1.516339E-01
-6.080230E-02
-2.846823E-02
-1.550201E-01
-1.400117E-01
-1.833189E-01
-1.570528E-01
-1.827246E-01
-1.955937E-01
-2.019179E-01
-1.916313E-01
-1.879951E-01
-1.499337E-01
-1.047844E-01
-6.897164E-02
-3.233407E-02
-1.122799E-01
-1.368113E-01
3.310166E-02
-1.213706E-01
-7.629392E-02
-1.221003E-01
-1.218033E-01
-1.317632E-01
-1.516339E-01
-1.370510E-01
-1.550201E-01
-1.499337E-01
-1.199203E-01
-5.165569E-02
-2.501179E-02
2.759064E-02
-6.028932E-02
-8.856098E-02
8.068346E-02
6.069230E-02
-8.641384E-02
-3.233407E-02
-6.897164E-02
-1.047844E-01
-6.080230E-02
-1.122799E-01
-1.368113E-01
-7.605003E-02
-1.213706E-01
-1.199203E-01
-8.627490E-02
-2.664391E-02
2.882982E-02
7.155050E-02
-5.139294E-02
-7.181301E-02
1.464279E-01
1.202788E-01
-6.745457E-02
2.759064E-02
-2.501179E-02
-5.165569E-02
-2.846823E-02
-6.028932E-02
-8.856098E-02
-8.641384E-02
-8.627490E-02
-6.947543E-02
2.251263E-02
7.278968E-02
5.134245E-02
1.311370E-01
-1.774753E-02
-3.464498E-02
1.584325E-01
2.066613E-01
-3.510622E-02
7.155050E-02
6.069230E-02
2.882982E-02
-2.664391E-02
3.310166E-02
-5.139294E-02
-7.181301E-02
-6.745457E-02
-6.947543E-02
-4.153901E-02
5.615805E-02
1.305518E-01
1.004429E-01
1.897767E-01
2.016891E-02
-1.689745E-02
2.168725E-01
2.506212E-01
-2.599013E-02
1.311370E-01
7.278968E-02
1.202788E-01
5.134245E-02
2.251263E-02
8.068346E-02
-1.774753E-02
-3.464498E-02
-3.510622E-02
-4.153901E-02
-2.790876E-02
5.381433E-02
1.052585E-01
1.356924E-01
1.879523E-01
2.373585E-01
3.417618E-02
1.400727E-02
3.070416E-01
-7.781366E-03
1.897767E-01
1.305518E-01
1.584325E-01
1.004429E-01
5.615805E-02
1.464279E-01
2.016891E-02
-1.689745E-02
-2.599013E-02
-2.790876E-02
-1.235988E-02
9.480040E-02
1.487437E-01
1.844678E-01
2.215978E-01
2.924706E-01
6.531545E-02
3.221604E-02
3.510015E-01
3.284051E-01
8.437461E-03
2.373585E-01
1.879523E-01
1.356924E-01
2.168725E-01
1.052585E-01
5.381433E-02
2.066613E-01
3.417618E-02
1.400727E-02
-7.781366E-03
-1.235988E-02
-4.578514E-03
9.229425E-02
1.406294E-01
1.927035E-01
2.702349E-01
3.261160E-01
6.335531E-02
2.664623E-02
4.076145E-01
3.792990E-01
1.180690E-02
2.924706E-01
2.215978E-01
1.844678E-01
2.506212E-01
1.487437E-01
9.480040E-02
6.531545E-02
3.221604E-02
8.437461E-03
-4.578514E-03
3.369437E-03
1.239795E-01
1.588381E-01
2.371916E-01
3.178167E-01
2.775930E-01
3.823211E-01
8.506582E-02
4.461649E-02
4.145485E-01
4.579103E-01
2.024436E-02
3.261160E-01
3.284051E-01
2.702349E-01
1.927035E-01
3.070416E-01
1.406294E-01
9.229425E-02
6.335531E-02
2.664623E-02
1.180690E-02
3.369437E-03
3.369437E-03
1.187112E-01
1.922874E-01
2.554004E-01
3.633286E-01
3.173574E-01
4.269555E-01
7.189681E-02
3.484518E-02
4.615305E-01
4.915557E-01
1.180690E-02
3.823211E-01
3.178167E-01
3.792990E-01
2.775930E-01
2.371916E-01
3.510015E-01
1.588381E-01
1.239795E-01
8.506582E-02
4.461649E-02
2.024436E-02
3.369437E-03
-4.578514E-03
1.458024E-01
2.362472E-01
1.845199E-01
3.067722E-01
3.555112E-01
4.162623E-01
4.709153E-01
7.189681E-02
4.461649E-02
5.342373E-01
8.437461E-03
4.269555E-01
3.633286E-01
4.145485E-01
3.173574E-01
2.554004E-01
4.076145E-01
1.922874E-01
1.187112E-01
7.189681E-02
3.484518E-02
1.180690E-02
-4.578514E-03
-1.235988E-02
1.458024E-01
2.637293E-01
2.071011E-01
3.351318E-01
3.925078E-01
4.344711E-01
5.128246E-01
8.506582E-02
2.664623E-02
5.678827E-01
5.461213E-01
-7.781366E-03
4.709153E-01
4.162623E-01
3.555112E-01
4.615305E-01
3.067722E-01
2.362472E-01
4.579103E-01
1.845199E-01
1.458024E-01
7.189681E-02
4.461649E-02
8.437461E-03
-1.235988E-02
-2.790876E-02
1.187112E-01
1.845199E-01
2.423506E-01
3.112421E-01
3.827136E-01
4.704992E-01
5.310334E-01
6.335531E-02
3.221604E-02
6.067455E-01
5.805743E-01
-2.599013E-02
5.128246E-01
4.344711E-01
3.925078E-01
4.915557E-01
3.351318E-01
2.637293E-01
2.071011E-01
1.458024E-01
8.506582E-02
2.664623E-02
-7.781366E-03
-2.790876E-02
-4.153901E-02
1.239795E-01
1.922874E-01
2.637293E-01
3.112421E-01
4.157604E-01
5.144590E-01
4.615826E-01
5.753004E-01
6.531545E-02
1.400727E-02
6.075531E-01
6.394467E-01
-3.510622E-02
5.310334E-01
5.461213E-01
4.704992E-01
3.827136E-01
5.342373E-01
3.112421E-01
2.423506E-01
1.845199E-01
1.187112E-01
6.335531E-02
3.221604E-02
-2.599013E-02
-4.153901E-02
-6.947543E-02
9.229425E-02
1.588381E-01
2.362472E-01
3.351318E-01
4.157604E-01
5.407920E-01
4.859572E-01
5.991342E-01
3.417618E-02
-1.689745E-02
6.359246E-01
6.576554E-01
-6.745457E-02
5.753004E-01
5.144590E-01
5.805743E-01
4.615826E-01
4.157604E-01
5.678827E-01
3.112421E-01
2.637293E-01
1.922874E-01
1.239795E-01
6.531545E-02
1.400727E-02
-3.510622E-02
-6.947543E-02
-8.627490E-02
9.480040E-02
1.406294E-01
2.554004E-01
3.827136E-01
3.067722E-01
4.615826E-01
5.212067E-01
5.812001E-01
6.327796E-01
2.016891E-02
-3.464498E-02
6.801002E-01
-8.641384E-02
5.991342E-01
5.407920E-01
6.075531E-01
4.859572E-01
4.157604E-01
6.067455E-01
3.351318E-01
2.362472E-01
1.588381E-01
9.229425E-02
3.417618E-02
-1.689745E-02
-6.745457E-02
-8.627490E-02
-1.199203E-01
5.381433E-02
1.487437E-01
2.371916E-01
3.925078E-01
3.173574E-01
4.704992E-01
5.407920E-01
5.812001E-01
6.551057E-01
-1.774753E-02
-7.181301E-02
6.983089E-01
6.806954E-01
-1.213706E-01
6.327796E-01
5.812001E-01
5.212067E-01
6.359246E-01
4.615826E-01
3.827136E-01
6.394467E-01
3.067722E-01
2.554004E-01
1.406294E-01
9.480040E-02
2.016891E-02
-3.464498E-02
-8.641384E-02
-1.199203E-01
-1.499337E-01
5.615805E-02
1.927035E-01
1.052585E-01
2.775930E-01
3.555112E-01
4.344711E-01
5.144590E-01
5.991342E-01
6.551057E-01
-5.139294E-02
-8.856098E-02
7.135050E-01
6.934625E-01
-1.550201E-01
6.551057E-01
5.812001E-01
5.407920E-01
6.576554E-01
4.704992E-01
3.925078E-01
3.173574E-01
2.371916E-01
1.487437E-01
5.381433E-02
-1.774753E-02
-7.181301E-02
-1.213706E-01
-1.499337E-01
-1.879951E-01
2.251263E-02
1.844678E-01
1.004429E-01
2.702349E-01
3.633286E-01
4.162623E-01
5.310334E-01
6.327796E-01
5.753004E-01
6.806954E-01
-6.028932E-02
-1.368113E-01
7.080634E-01
7.236330E-01
-1.916313E-01
6.551057E-01
6.806954E-01
5.991342E-01
5.144590E-01
6.801002E-01
4.344711E-01
3.555112E-01
2.775930E-01
1.927035E-01
1.052585E-01
5.615805E-02
-5.139294E-02
-8.856098E-02
-1.550201E-01
-1.879951E-01
-2.249874E-01
5.134245E-02
-2.664391E-02
1.356924E-01
2.215978E-01
3.178167E-01
4.269555E-01
5.128246E-01
6.359246E-01
5.805743E-01
6.801002E-01
-1.122799E-01
-1.516339E-01
7.135050E-01
7.236330E-01
-2.355911E-01
6.806954E-01
6.327796E-01
6.934625E-01
5.753004E-01
5.310334E-01
6.983089E-01
4.162623E-01
3.633286E-01
2.702349E-01
1.844678E-01
1.004429E-01
2.251263E-02
-6.028932E-02
-1.368113E-01
-1.916313E-01
-2.249874E-01
-2.584398E-01
2.882982E-02
-5.165569E-02
1.305518E-01
1.879523E-01
3.261160E-01
4.709153E-01
3.823211E-01
5.461213E-01
6.075531E-01
6.576554E-01
6.983089E-01
-1.317632E-01
-1.955937E-01
-2.601438E-01
6.801002E-01
6.359246E-01
7.080634E-01
5.805743E-01
5.128246E-01
7.135050E-01
4.269555E-01
3.178167E-01
2.215978E-01
1.356924E-01
5.134245E-02
-2.664391E-02
-1.122799E-01
-1.516339E-01
-2.355911E-01
-2.584398E-01
-3.066087E-01
7.278968E-02
-2.501179E-02
-1.047844E-01
1.897767E-01
2.924706E-01
4.615305E-01
3.792990E-01
5.342373E-01
6.067455E-01
6.394467E-01
-1.827246E-01
-2.419351E-01
-3.127247E-01
6.983089E-01
6.576554E-01
6.075531E-01
7.135050E-01
5.461213E-01
4.709153E-01
7.236330E-01
3.823211E-01
3.261160E-01
1.879523E-01
1.305518E-01
2.882982E-02
-5.165569E-02
-1.317632E-01
-1.955937E-01
-2.601438E-01
-3.066087E-01
-3.363409E-01
7.155050E-02
-6.897164E-02
-1.221003E-01
2.373585E-01
1.311370E-01
3.284051E-01
4.145485E-01
4.915557E-01
5.678827E-01
-2.169643E-01
-2.799151E-01
-3.439095E-01
6.394467E-01
6.067455E-01
7.236330E-01
5.342373E-01
4.615305E-01
3.792990E-01
2.924706E-01
1.897767E-01
7.278968E-02
-2.501179E-02
-1.047844E-01
-1.827246E-01
-2.419351E-01
-3.127247E-01
-3.363409E-01
-3.839227E-01
2.759064E-02
-7.629392E-02
-1.833189E-01
2.168725E-01
1.202788E-01
3.070416E-01
4.076145E-01
4.579103E-01
-2.678135E-01
-3.293087E-01
-3.889734E-01
5.678827E-01
4.915557E-01
4.145485E-01
3.284051E-01
2.373585E-01
1.311370E-01
7.155050E-02
-6.897164E-02
-1.221003E-01
-2.169643E-01
-2.799151E-01
-3.439095E-01
-3.839227E-01
-4.203938E-01
6.069230E-02
-3.233407E-02
-1.400117E-01
-1.939079E-01
1.584325E-01
2.506212E-01
3.510015E-01
-3.153953E-01
-3.561638E-01
-4.297276E-01
4.579103E-01
4.076145E-01
3.070416E-01
2.168725E-01
1.202788E-01
2.759064E-02
-7.629392E-02
-1.833189E-01
-2.678135E-01
-3.293087E-01
-3.889734E-01
-4.203938E-01
-4.655599E-01
3.310166E-02
-6.080230E-02
-1.570528E-01
-2.414898E-01
1.464279E-01
2.066613E-01
-3.307495E-01
-4.115189E-01
-4.698431E-01
3.510015E-01
2.506212E-01
1.584325E-01
6.069230E-02
-3.233407E-02
-1.400117E-01
-1.939079E-01
-3.153953E-01
-3.561638E-01
-4.297276E-01
-4.655599E-01
-5.036987E-01
8.068346E-02
-2.846823E-02
-1.218033E-01
-2.162604E-01
-2.971040E-01
-3.898448E-01
-4.298457E-01
-5.138029E-01
2.066613E-01
1.464279E-01
3.310166E-02
-6.080230E-02
-1.570528E-01
-2.414898E-01
-3.307495E-01
-4.115189E-01
-4.698431E-01
-5.036987E-01
-5.360046E-01
-7.605003E-02
-1.370510E-01
-2.458777E-01
-3.292205E-01
-4.104745E-01
-4.738055E-01
-5.348514E-01
8.068346E-02
-2.846823E-02
-1.218033E-01
-2.162604E-01
-2.971040E-01
-3.898448E-01
-4.298457E-01
-5.138029E-01
-5.360046E-01
-5.770688E-01
-2.019179E-01
-3.032236E-01
-3.834957E-01
-4.602894E-01
-5.166426E-01
-5.803275E-01
-7.605003E-02
-1.370510E-01
-2.458777E-01
-3.292205E-01
-4.104745E-01
-4.738055E-01
-5.348514E-01
-5.770688E-01
-6.003433E-01
-3.471834E-01
-3.996652E-01
-4.874245E-01
-5.475179E-01
-6.014052E-01
-2.019179E-01
-3.032236E-01
-3.834957E-01
-4.602894E-01
-5.166426E-01
-5.803275E-01
-6.003433E-01
-6.339887E-01
-4.537791E-01
-5.318159E-01
-5.868043E-01
-6.342435E-01
-3.471834E-01
-3.996652E-01
-4.874245E-01
-5.475179E-01
-6.014052E-01
-6.339887E-01
-6.575270E-01
-5.654613E-01
-6.014339E-01
-6.547652E-01
-4.537791E-01
-5.318159E-01
-5.868043E-01
-6.342435E-01
-6.575270E-01
-6.824607E-01
-6.365565E-01
-6.794441E-01
-5.654613E-01
-6.014339E-01
-6.547652E-01
-6.824607E-01
-7.007773E-01
-6.976528E-01
-6.365565E-01
-6.794441E-01
-7.007773E-01
-7.116398E-01
-6.976528E-01
-7.116398E-01
-7.224240E-01
-7.224240E-01
