# vtk DataFile Version 2.0
Grille
ASCII
DATASET POLYDATA
POINTS 481 float
0.000000E+00 8.750000E-01 -8.802370E-01
6.250000E-02 8.750000E-01 -8.633235E-01
1.250000E-01 8.750000E-01 -8.132329E-01
1.250000E-01 9.375000E-01 -8.633235E-01
1.250000E-01 1.000000E+00 -8.802370E-01
6.250000E-02 1.000000E+00 -9.344546E-01
0.000000E+00 1.000000E+00 -9.527616E-01
0.000000E+00 9.375000E-01 -9.344546E-01
3.750000E-02 9.125000E-01 -9.106342E-01
8.125000E-02 9.187500E-01 -8.920212E-01
8.750000E-02 9.625000E-01 -9.106342E-01
4.375000E-02 9.562500E-01 -9.348760E-01
1.875000E-01 8.750000E-01 -7.318903E-01
2.500000E-01 8.750000E-01 -6.224215E-01
2.500000E-01 9.375000E-01 -6.607592E-01
2.500000E-01 1.000000E+00 -6.737042E-01
1.875000E-01 1.000000E+00 -7.921923E-01
1.625000E-01 9.125000E-01 -8.000705E-01
2.062500E-01 9.187500E-01 -7.350430E-01
2.125000E-01 9.625000E-01 -7.430335E-01
1.687500E-01 9.562500E-01 -8.142284E-01
0.000000E+00 7.500000E-01 -6.737042E-01
6.250000E-02 7.500000E-01 -6.607592E-01
1.250000E-01 7.500000E-01 -6.224215E-01
1.250000E-01 8.125000E-01 -7.318903E-01
0.000000E+00 8.125000E-01 -7.921923E-01
3.750000E-02 7.875000E-01 -7.430335E-01
8.125000E-02 7.937500E-01 -7.350430E-01
8.750000E-02 8.375000E-01 -8.000705E-01
4.375000E-02 8.312500E-01 -8.142284E-01
1.875000E-01 7.500000E-01 -5.601646E-01
2.500000E-01 7.500000E-01 -4.763808E-01
2.500000E-01 8.125000E-01 -5.601646E-01
1.625000E-01 7.875000E-01 -6.528188E-01
2.062500E-01 7.937500E-01 -6.056898E-01
2.125000E-01 8.375000E-01 -6.528188E-01
1.687500E-01 8.312500E-01 -7.091506E-01
3.125000E-01 8.750000E-01 -4.890335E-01
3.750000E-01 8.750000E-01 -3.368521E-01
3.750000E-01 9.375000E-01 -3.576003E-01
3.750000E-01 1.000000E+00 -3.646061E-01
3.125000E-01 1.000000E+00 -5.293260E-01
2.875000E-01 9.125000E-01 -5.677032E-01
3.312500E-01 9.187500E-01 -4.661611E-01
3.375000E-01 9.625000E-01 -4.623127E-01
2.937500E-01 9.562500E-01 -5.696219E-01
4.375000E-01 8.750000E-01 -1.717257E-01
5.000000E-01 8.750000E-01 -5.389897E-17
5.000000E-01 9.375000E-01 -5.721884E-17
5.000000E-01 1.000000E+00 -5.833982E-17
4.375000E-01 1.000000E+00 -1.858746E-01
4.125000E-01 9.125000E-01 -2.489083E-01
4.562500E-01 9.187500E-01 -1.263105E-01
4.625000E-01 9.625000E-01 -1.112089E-01
4.187500E-01 9.562500E-01 -2.382956E-01
3.125000E-01 7.500000E-01 -3.742900E-01
3.750000E-01 7.500000E-01 -2.578154E-01
3.750000E-01 8.125000E-01 -3.031589E-01
2.875000E-01 7.875000E-01 -4.632184E-01
3.312500E-01 7.937500E-01 -3.841259E-01
3.375000E-01 8.375000E-01 -4.061814E-01
2.937500E-01 8.312500E-01 -4.961110E-01
4.375000E-01 7.500000E-01 -1.314332E-01
5.000000E-01 7.500000E-01 -4.125248E-17
5.000000E-01 8.125000E-01 -4.850779E-17
4.125000E-01 7.875000E-01 -2.030971E-01
4.562500E-01 7.937500E-01 -1.040823E-01
4.625000E-01 8.375000E-01 -9.770657E-02
4.187500E-01 8.312500E-01 -2.075431E-01
0.000000E+00 6.250000E-01 -3.646061E-01
6.250000E-02 6.250000E-01 -3.576003E-01
1.250000E-01 6.250000E-01 -3.368521E-01
1.250000E-01 6.875000E-01 -4.890335E-01
0.000000E+00 6.875000E-01 -5.293260E-01
3.750000E-02 6.625000E-01 -4.623127E-01
8.125000E-02 6.687500E-01 -4.661611E-01
8.750000E-02 7.125000E-01 -5.677032E-01
4.375000E-02 7.062500E-01 -5.696219E-01
1.875000E-01 6.250000E-01 -3.031589E-01
2.500000E-01 6.250000E-01 -2.578154E-01
2.500000E-01 6.875000E-01 -3.742900E-01
1.625000E-01 6.625000E-01 -4.061814E-01
2.062500E-01 6.687500E-01 -3.841259E-01
2.125000E-01 7.125000E-01 -4.632184E-01
1.687500E-01 7.062500E-01 -4.961110E-01
0.000000E+00 5.000000E-01 5.833982E-17
6.250000E-02 5.000000E-01 5.721884E-17
1.250000E-01 5.000000E-01 5.389897E-17
1.250000E-01 5.625000E-01 -1.717257E-01
0.000000E+00 5.625000E-01 -1.858746E-01
3.750000E-02 5.375000E-01 -1.112089E-01
8.125000E-02 5.437500E-01 -1.263105E-01
8.750000E-02 5.875000E-01 -2.489083E-01
4.375000E-02 5.812500E-01 -2.382956E-01
1.875000E-01 5.000000E-01 4.850779E-17
2.500000E-01 5.000000E-01 4.125248E-17
2.500000E-01 5.625000E-01 -1.314332E-01
1.625000E-01 5.375000E-01 -9.770657E-02
2.062500E-01 5.437500E-01 -1.040823E-01
2.125000E-01 5.875000E-01 -2.030971E-01
1.687500E-01 5.812500E-01 -2.075431E-01
3.125000E-01 6.250000E-01 -2.025643E-01
3.750000E-01 6.250000E-01 -1.395287E-01
3.750000E-01 6.875000E-01 -2.025643E-01
2.875000E-01 6.625000E-01 -2.882127E-01
3.312500E-01 6.687500E-01 -2.436110E-01
3.375000E-01 7.125000E-01 -2.882127E-01
2.937500E-01 7.062500E-01 -3.470718E-01
4.375000E-01 6.250000E-01 -7.113112E-02
5.000000E-01 6.250000E-01 -2.232568E-17
5.000000E-01 6.875000E-01 -3.241187E-17
4.125000E-01 6.625000E-01 -1.263663E-01
4.562500E-01 6.687500E-01 -6.600856E-02
4.625000E-01 7.125000E-01 -6.932931E-02
4.187500E-01 7.062500E-01 -1.451940E-01
3.125000E-01 5.000000E-01 3.241187E-17
3.750000E-01 5.000000E-01 2.232568E-17
3.750000E-01 5.625000E-01 -7.113112E-02
2.875000E-01 5.375000E-01 -6.932931E-02
3.312500E-01 5.437500E-01 -6.600856E-02
3.375000E-01 5.875000E-01 -1.263663E-01
2.937500E-01 5.812500E-01 -1.451940E-01
4.375000E-01 5.000000E-01 1.138153E-17
5.000000E-01 5.000000E-01 3.572284E-33
5.000000E-01 5.625000E-01 -1.138153E-17
4.125000E-01 5.375000E-01 -3.039729E-02
4.562500E-01 5.437500E-01 -1.788560E-02
4.625000E-01 5.875000E-01 -3.039729E-02
4.187500E-01 5.812500E-01 -6.074046E-02
5.625000E-01 8.750000E-01 1.717257E-01
6.250000E-01 8.750000E-01 3.368521E-01
6.250000E-01 9.375000E-01 3.576003E-01
6.250000E-01 1.000000E+00 3.646061E-01
5.625000E-01 1.000000E+00 1.858746E-01
5.375000E-01 9.125000E-01 1.077807E-01
5.812500E-01 9.187500E-01 2.327698E-01
5.875000E-01 9.625000E-01 2.568254E-01
5.437500E-01 9.562500E-01 1.293090E-01
6.875000E-01 8.750000E-01 4.890335E-01
7.500000E-01 8.750000E-01 6.224215E-01
7.500000E-01 9.375000E-01 6.607592E-01
7.500000E-01 1.000000E+00 6.737042E-01
6.875000E-01 1.000000E+00 5.293260E-01
6.625000E-01 9.125000E-01 4.480610E-01
7.062500E-01 9.187500E-01 5.564130E-01
7.125000E-01 9.625000E-01 5.857604E-01
6.687500E-01 9.562500E-01 4.772275E-01
5.625000E-01 7.500000E-01 1.314332E-01
6.250000E-01 7.500000E-01 2.578154E-01
6.250000E-01 8.125000E-01 3.031589E-01
5.375000E-01 7.875000E-01 8.794381E-02
5.812500E-01 7.937500E-01 1.918069E-01
5.875000E-01 8.375000E-01 2.256432E-01
5.437500E-01 8.312500E-01 1.126214E-01
6.875000E-01 7.500000E-01 3.742900E-01
7.500000E-01 7.500000E-01 4.763808E-01
7.500000E-01 8.125000E-01 5.601646E-01
6.625000E-01 7.875000E-01 3.655961E-01
7.062500E-01 7.937500E-01 4.584952E-01
7.125000E-01 8.375000E-01 5.146409E-01
6.687500E-01 8.312500E-01 4.156404E-01
8.125000E-01 8.750000E-01 7.318903E-01
8.750000E-01 8.750000E-01 8.132329E-01
8.750000E-01 9.375000E-01 8.633235E-01
8.750000E-01 1.000000E+00 8.802370E-01
8.125000E-01 1.000000E+00 7.921923E-01
7.875000E-01 9.125000E-01 7.201281E-01
8.312500E-01 9.187500E-01 7.953473E-01
8.375000E-01 9.625000E-01 8.255186E-01
7.937500E-01 9.562500E-01 7.524925E-01
9.375000E-01 8.750000E-01 8.633235E-01
1.000000E+00 8.750000E-01 8.802370E-01
1.000000E+00 9.375000E-01 9.344546E-01
1.000000E+00 1.000000E+00 9.527616E-01
9.375000E-01 1.000000E+00 9.344546E-01
9.125000E-01 9.125000E-01 8.825622E-01
9.562500E-01 9.187500E-01 9.131972E-01
9.625000E-01 9.625000E-01 9.395992E-01
9.187500E-01 9.562500E-01 9.131972E-01
8.125000E-01 7.500000E-01 5.601646E-01
8.750000E-01 7.500000E-01 6.224215E-01
8.750000E-01 8.125000E-01 7.318903E-01
7.875000E-01 7.875000E-01 5.875897E-01
8.312500E-01 7.937500E-01 6.553818E-01
8.375000E-01 8.375000E-01 7.252891E-01
7.937500E-01 8.312500E-01 6.553818E-01
9.375000E-01 7.500000E-01 6.607592E-01
1.000000E+00 7.500000E-01 6.737042E-01
1.000000E+00 8.125000E-01 7.921923E-01
9.125000E-01 7.875000E-01 7.201281E-01
9.562500E-01 7.937500E-01 7.524925E-01
9.625000E-01 8.375000E-01 8.255186E-01
9.187500E-01 8.312500E-01 7.953473E-01
5.625000E-01 6.250000E-01 7.113112E-02
6.250000E-01 6.250000E-01 1.395287E-01
6.250000E-01 6.875000E-01 2.025643E-01
5.375000E-01 6.625000E-01 5.471831E-02
5.812500E-01 6.687500E-01 1.216431E-01
5.875000E-01 7.125000E-01 1.601089E-01
5.437500E-01 7.062500E-01 7.878825E-02
6.875000E-01 6.250000E-01 2.025643E-01
7.500000E-01 6.250000E-01 2.578154E-01
7.500000E-01 6.875000E-01 3.742900E-01
6.625000E-01 6.625000E-01 2.274725E-01
7.062500E-01 6.687500E-01 2.907757E-01
7.125000E-01 7.125000E-01 3.651719E-01
6.687500E-01 7.062500E-01 2.907757E-01
5.625000E-01 5.000000E-01 -1.138153E-17
6.250000E-01 5.000000E-01 -2.232568E-17
6.250000E-01 5.625000E-01 7.113112E-02
5.375000E-01 5.375000E-01 1.316244E-02
5.812500E-01 5.437500E-01 3.296028E-02
5.875000E-01 5.875000E-01 7.019940E-02
5.437500E-01 5.812500E-01 3.296028E-02
6.875000E-01 5.000000E-01 -3.241187E-17
7.500000E-01 5.000000E-01 -4.125248E-17
7.500000E-01 5.625000E-01 1.314332E-01
6.625000E-01 5.375000E-01 5.471831E-02
7.062500E-01 5.437500E-01 7.878825E-02
7.125000E-01 5.875000E-01 1.601089E-01
6.687500E-01 5.812500E-01 1.216431E-01
8.125000E-01 6.250000E-01 3.031589E-01
8.750000E-01 6.250000E-01 3.368521E-01
8.750000E-01 6.875000E-01 4.890335E-01
7.875000E-01 6.625000E-01 3.655961E-01
8.312500E-01 6.687500E-01 4.156404E-01
8.375000E-01 7.125000E-01 5.146409E-01
7.937500E-01 7.062500E-01 4.584952E-01
9.375000E-01 6.250000E-01 3.576003E-01
1.000000E+00 6.250000E-01 3.646061E-01
1.000000E+00 6.875000E-01 5.293260E-01
9.125000E-01 6.625000E-01 4.480610E-01
9.562500E-01 6.687500E-01 4.772275E-01
9.625000E-01 7.125000E-01 5.857604E-01
9.187500E-01 7.062500E-01 5.564130E-01
8.125000E-01 5.000000E-01 -4.850779E-17
8.750000E-01 5.000000E-01 -5.389897E-17
8.750000E-01 5.625000E-01 1.717257E-01
7.875000E-01 5.375000E-01 8.794381E-02
8.312500E-01 5.437500E-01 1.126214E-01
8.375000E-01 5.875000E-01 2.256432E-01
7.937500E-01 5.812500E-01 1.918069E-01
9.375000E-01 5.000000E-01 -5.721884E-17
1.000000E+00 5.000000E-01 -5.833982E-17
1.000000E+00 5.625000E-01 1.858746E-01
9.125000E-01 5.375000E-01 1.077807E-01
9.562500E-01 5.437500E-01 1.293090E-01
9.625000E-01 5.875000E-01 2.568254E-01
9.187500E-01 5.812500E-01 2.327698E-01
0.000000E+00 3.750000E-01 3.646061E-01
6.250000E-02 3.750000E-01 3.576003E-01
[...]
CELL_DATA 896
SCALARS sol float 1
LOOKUP_TABLE default
-8.847316E-01
-8.886596E-01
-9.084419E-01
-8.525963E-01
-9.125105E-01
-8.561925E-01
-9.266549E-01
-8.288859E-01
-8.258741E-01
-9.125105E-01
-8.561925E-01
-8.255423E-01
-9.406974E-01
-7.831514E-01
-7.831139E-01
-9.266549E-01
-8.886596E-01
-8.255423E-01
-7.817312E-01
-9.406974E-01
-7.641016E-01
-7.363100E-01
-7.556679E-01
-9.084419E-01
-8.847316E-01
-7.817312E-01
-8.258741E-01
-7.514246E-01
-7.129452E-01
-6.924990E-01
-6.964516E-01
-8.525963E-01
-7.556679E-01
-7.514246E-01
-7.831139E-01
-6.979532E-01
-6.727412E-01
-6.346951E-01
-6.690435E-01
-8.288859E-01
-6.964516E-01
-6.979532E-01
-7.641016E-01
-6.558864E-01
-6.169613E-01
-5.908840E-01
-5.993614E-01
-6.118016E-01
-7.831514E-01
-6.727412E-01
-6.690435E-01
-6.558864E-01
-7.129452E-01
-6.062244E-01
-5.597194E-01
-5.204202E-01
-5.344954E-01
-5.595657E-01
-7.363100E-01
-6.169613E-01
-6.118016E-01
-6.062244E-01
-6.924990E-01
-5.474117E-01
-5.076326E-01
-5.358553E-01
-4.993652E-01
-4.520816E-01
-5.064980E-01
-5.597194E-01
-5.993614E-01
-5.595657E-01
-5.474117E-01
-6.346951E-01
-4.999212E-01
-4.306822E-01
-4.637753E-01
-4.286914E-01
-3.948397E-01
-4.478184E-01
-5.076326E-01
-5.358553E-01
-5.344954E-01
-5.064980E-01
-4.999212E-01
-5.908840E-01
-4.379631E-01
-3.868712E-01
-4.106890E-01
-4.288061E-01
-3.201673E-01
-4.072114E-01
-4.306822E-01
-4.637753E-01
-4.993652E-01
-4.478184E-01
-4.379631E-01
-5.204202E-01
-3.992475E-01
-3.144536E-01
-3.487308E-01
-3.644887E-01
-2.629254E-01
-2.816014E-01
-3.387438E-01
-3.868712E-01
-4.106890E-01
-4.288061E-01
-4.286914E-01
-4.072114E-01
-3.992475E-01
-4.520816E-01
-3.365248E-01
-2.524954E-01
-2.825180E-01
-3.150334E-01
-1.784597E-01
-2.045048E-01
-3.067727E-01
-3.144536E-01
-3.487308E-01
-3.644887E-01
-3.948397E-01
-3.387438E-01
-3.365248E-01
-2.929652E-01
-2.387070E-01
-1.823148E-01
-2.379330E-01
-2.546905E-01
-1.586050E-01
-9.902782E-02
-2.495308E-01
-2.524954E-01
-2.816014E-01
-2.825180E-01
-3.150334E-01
-3.201673E-01
-3.067727E-01
-2.929652E-01
-2.447960E-01
-1.589918E-01
-9.934540E-02
-1.715742E-01
-1.974486E-01
-7.917312E-02
-3.706963E-02
-2.018579E-01
-1.823148E-01
-2.387070E-01
-2.045048E-01
-2.379330E-01
-2.546905E-01
-2.629254E-01
-2.495308E-01
-2.447960E-01
-1.952347E-01
-1.364440E-01
-8.981076E-02
-4.210349E-02
-1.462042E-01
-1.781475E-01
4.310301E-02
-1.580415E-01
-9.934540E-02
-1.589918E-01
-1.586050E-01
-1.715742E-01
-1.974486E-01
-1.784597E-01
-2.018579E-01
-1.952347E-01
-1.561531E-01
-6.726296E-02
-3.256886E-02
3.592689E-02
-7.850516E-02
-1.153188E-01
1.050612E-01
7.902990E-02
-1.125229E-01
-4.210349E-02
-8.981076E-02
-1.364440E-01
-7.917312E-02
-1.462042E-01
-1.781475E-01
-9.902782E-02
-1.580415E-01
-1.561531E-01
-1.123420E-01
-3.469411E-02
3.754048E-02
9.316879E-02
-6.692083E-02
-9.351063E-02
1.906697E-01
1.566198E-01
-8.783532E-02
3.592689E-02
-3.256886E-02
-6.726296E-02
-3.706963E-02
-7.850516E-02
-1.153188E-01
-1.125229E-01
-1.123420E-01
-9.046676E-02
2.931460E-02
9.478238E-02
6.685508E-02
1.707587E-01
-2.310977E-02
-4.511262E-02
2.063014E-01
2.691020E-01
-4.571323E-02
9.316879E-02
7.902990E-02
3.754048E-02
-3.469411E-02
4.310301E-02
-6.692083E-02
-9.351063E-02
-8.783532E-02
-9.046676E-02
-5.408962E-02
7.312566E-02
1.699968E-01
1.307907E-01
2.471159E-01
2.626275E-02
-2.200285E-02
2.823985E-01
3.263439E-01
-3.384280E-02
1.707587E-01
9.478238E-02
1.566198E-01
6.685508E-02
2.931460E-02
1.050612E-01
-2.310977E-02
-4.511262E-02
-4.571323E-02
-5.408962E-02
-3.634112E-02
7.007381E-02
1.370613E-01
1.766905E-01
2.447403E-01
3.090741E-01
4.450219E-02
1.823944E-02
3.998113E-01
-1.013243E-02
2.471159E-01
1.699968E-01
2.063014E-01
1.307907E-01
7.312566E-02
1.906697E-01
2.626275E-02
-2.200285E-02
-3.384280E-02
-3.634112E-02
-1.609430E-02
1.234434E-01
1.936852E-01
2.402030E-01
2.885514E-01
3.808378E-01
8.504989E-02
4.194981E-02
4.570532E-01
4.276296E-01
1.098676E-02
3.090741E-01
2.447403E-01
1.766905E-01
2.823985E-01
1.370613E-01
7.007381E-02
2.691020E-01
4.450219E-02
1.823944E-02
-1.013243E-02
-1.609430E-02
-5.961868E-03
1.201801E-01
1.831192E-01
2.509271E-01
3.518838E-01
4.246488E-01
8.249751E-02
3.469713E-02
5.307713E-01
4.939005E-01
1.537424E-02
3.808378E-01
2.885514E-01
2.402030E-01
3.263439E-01
1.936852E-01
1.234434E-01
8.504989E-02
4.194981E-02
1.098676E-02
-5.961868E-03
4.387480E-03
1.614388E-01
2.068295E-01
3.088568E-01
4.138420E-01
3.614651E-01
4.978358E-01
1.107676E-01
5.809693E-02
5.398003E-01
5.962635E-01
2.636100E-02
4.246488E-01
4.276296E-01
3.518838E-01
2.509271E-01
3.998113E-01
1.831192E-01
1.201801E-01
8.249751E-02
3.469713E-02
1.537424E-02
4.387480E-03
4.387480E-03
1.545787E-01
2.503851E-01
3.325672E-01
4.731049E-01
4.132439E-01
5.559560E-01
9.361974E-02
4.537332E-02
6.009775E-01
6.400746E-01
1.537424E-02
4.978358E-01
4.138420E-01
4.939005E-01
3.614651E-01
3.088568E-01
4.570532E-01
2.068295E-01
1.614388E-01
1.107676E-01
5.809693E-02
2.636100E-02
4.387480E-03
-5.961868E-03
1.898552E-01
3.076270E-01
2.402708E-01
3.994604E-01
4.629255E-01
5.420319E-01
6.131979E-01
9.361974E-02
5.809693E-02
6.956519E-01
1.098676E-02
5.559560E-01
4.731049E-01
5.398003E-01
4.132439E-01
3.325672E-01
5.307713E-01
2.503851E-01
1.545787E-01
9.361974E-02
4.537332E-02
1.537424E-02
-5.961868E-03
-1.609430E-02
1.898552E-01
3.434125E-01
2.696746E-01
4.363887E-01
5.111002E-01
5.657423E-01
6.677696E-01
1.107676E-01
3.469713E-02
7.394630E-01
7.111266E-01
-1.013243E-02
6.131979E-01
5.420319E-01
4.629255E-01
6.009775E-01
3.994604E-01
3.076270E-01
5.962635E-01
2.402708E-01
1.898552E-01
9.361974E-02
5.809693E-02
1.098676E-02
-1.609430E-02
-3.634112E-02
1.545787E-01
2.402708E-01
3.155744E-01
4.052809E-01
4.983469E-01
6.126560E-01
6.914800E-01
8.249751E-02
4.194981E-02
7.900678E-01
7.559893E-01
-3.384280E-02
6.677696E-01
5.657423E-01
5.111002E-01
6.400746E-01
4.363887E-01
3.434125E-01
2.696746E-01
1.898552E-01
1.107676E-01
3.469713E-02
-1.013243E-02
-3.634112E-02
-5.408962E-02
1.614388E-01
2.503851E-01
3.434125E-01
4.052809E-01
5.413784E-01
6.698979E-01
6.010454E-01
7.491219E-01
8.504989E-02
1.823944E-02
7.911195E-01
8.326493E-01
-4.571323E-02
6.914800E-01
7.111266E-01
6.126560E-01
4.983469E-01
6.956519E-01
4.052809E-01
3.155744E-01
2.402708E-01
1.545787E-01
8.249751E-02
4.194981E-02
-3.384280E-02
-5.408962E-02
-9.046676E-02
1.201801E-01
2.068295E-01
3.076270E-01
4.363887E-01
5.413784E-01
7.041871E-01
6.327844E-01
7.801568E-01
4.450219E-02
-2.200285E-02
8.280631E-01
8.563597E-01
-8.783532E-02
7.491219E-01
6.698979E-01
7.559893E-01
6.010454E-01
5.413784E-01
7.394630E-01
4.052809E-01
3.434125E-01
2.503851E-01
1.614388E-01
8.504989E-02
1.823944E-02
-4.571323E-02
-9.046676E-02
-1.123420E-01
1.234434E-01
1.831192E-01
3.325672E-01
4.983469E-01
3.994604E-01
6.010454E-01
6.786842E-01
7.568041E-01
8.239679E-01
2.626275E-02
-4.511262E-02
8.855859E-01
-1.125229E-01
7.801568E-01
7.041871E-01
7.911195E-01
6.327844E-01
5.413784E-01
7.900678E-01
4.363887E-01
3.076270E-01
2.068295E-01
1.201801E-01
4.450219E-02
-2.200285E-02
-8.783532E-02
-1.123420E-01
-1.561531E-01
7.007381E-02
1.936852E-01
3.088568E-01
5.111002E-01
4.132439E-01
6.126560E-01
7.041871E-01
7.568041E-01
8.530395E-01
-2.310977E-02
-9.351063E-02
9.092963E-01
8.863610E-01
-1.580415E-01
8.239679E-01
7.568041E-01
6.786842E-01
8.280631E-01
6.010454E-01
4.983469E-01
8.326493E-01
3.994604E-01
3.325672E-01
1.831192E-01
1.234434E-01
2.626275E-02
-4.511262E-02
-1.125229E-01
-1.561531E-01
-1.952347E-01
7.312566E-02
2.509271E-01
1.370613E-01
3.614651E-01
4.629255E-01
5.657423E-01
6.698979E-01
7.801568E-01
8.530395E-01
-6.692083E-02
-1.153188E-01
9.290837E-01
9.029856E-01
-2.018579E-01
8.530395E-01
7.568041E-01
7.041871E-01
8.563597E-01
6.126560E-01
5.111002E-01
4.132439E-01
3.088568E-01
1.936852E-01
7.007381E-02
-2.310977E-02
-9.351063E-02
-1.580415E-01
-1.952347E-01
-2.447960E-01
2.931460E-02
2.402030E-01
1.307907E-01
3.518838E-01
4.731049E-01
5.420319E-01
6.914800E-01
8.239679E-01
7.491219E-01
8.863610E-01
-7.850516E-02
-1.781475E-01
9.219979E-01
9.422718E-01
-2.495308E-01
8.530395E-01
8.863610E-01
7.801568E-01
6.698979E-01
8.855859E-01
5.657423E-01
4.629255E-01
3.614651E-01
2.509271E-01
1.370613E-01
7.312566E-02
-6.692083E-02
-1.153188E-01
-2.018579E-01
-2.447960E-01
-2.929652E-01
6.685508E-02
-3.469411E-02
1.766905E-01
2.885514E-01
4.138420E-01
5.559560E-01
6.677696E-01
8.280631E-01
7.559893E-01
8.855859E-01
-1.462042E-01
-1.974486E-01
9.290837E-01
9.422718E-01
-3.067727E-01
8.863610E-01
8.239679E-01
9.029856E-01
7.491219E-01
6.914800E-01
9.092963E-01
5.420319E-01
4.731049E-01
3.518838E-01
2.402030E-01
1.307907E-01
2.931460E-02
-7.850516E-02
-1.781475E-01
-2.495308E-01
-2.929652E-01
-3.365248E-01
3.754048E-02
-6.726296E-02
1.699968E-01
2.447403E-01
4.246488E-01
6.131979E-01
4.978358E-01
7.111266E-01
7.911195E-01
8.563597E-01
9.092963E-01
-1.715742E-01
-2.546905E-01
-3.387438E-01
8.855859E-01
8.280631E-01
9.219979E-01
7.559893E-01
6.677696E-01
9.290837E-01
5.559560E-01
4.138420E-01
2.885514E-01
1.766905E-01
6.685508E-02
-3.469411E-02
-1.462042E-01
-1.974486E-01
-3.067727E-01
-3.365248E-01
-3.992475E-01
9.478238E-02
-3.256886E-02
-1.364440E-01
2.471159E-01
3.808378E-01
6.009775E-01
4.939005E-01
6.956519E-01
7.900678E-01
8.326493E-01
-2.379330E-01
-3.150334E-01
-4.072114E-01
9.092963E-01
8.563597E-01
7.911195E-01
9.290837E-01
7.111266E-01
6.131979E-01
9.422718E-01
4.978358E-01
4.246488E-01
2.447403E-01
1.699968E-01
3.754048E-02
-6.726296E-02
-1.715742E-01
-2.546905E-01
-3.387438E-01
-3.992475E-01
-4.379631E-01
9.316879E-02
-8.981076E-02
-1.589918E-01
3.090741E-01
1.707587E-01
4.276296E-01
5.398003E-01
6.400746E-01
7.394630E-01
-2.825180E-01
-3.644887E-01
-4.478184E-01
8.326493E-01
7.900678E-01
9.422718E-01
6.956519E-01
6.009775E-01
4.939005E-01
3.808378E-01
2.471159E-01
9.478238E-02
-3.256886E-02
-1.364440E-01
-2.379330E-01
-3.150334E-01
-4.072114E-01
-4.379631E-01
-4.999212E-01
3.592689E-02
-9.934540E-02
-2.387070E-01
2.823985E-01
1.566198E-01
3.998113E-01
5.307713E-01
5.962635E-01
-3.487308E-01
-4.288061E-01
-5.064980E-01
7.394630E-01
6.400746E-01
5.398003E-01
4.276296E-01
3.090741E-01
1.707587E-01
9.316879E-02
-8.981076E-02
-1.589918E-01
-2.825180E-01
-3.644887E-01
-4.478184E-01
-4.999212E-01
-5.474117E-01
7.902990E-02
-4.210349E-02
-1.823148E-01
-2.524954E-01
2.063014E-01
3.263439E-01
4.570532E-01
-4.106890E-01
-4.637753E-01
-5.595657E-01
5.962635E-01
5.307713E-01
3.998113E-01
2.823985E-01
1.566198E-01
3.592689E-02
-9.934540E-02
-2.387070E-01
-3.487308E-01
-4.288061E-01
-5.064980E-01
-5.474117E-01
-6.062244E-01
4.310301E-02
-7.917312E-02
-2.045048E-01
-3.144536E-01
1.906697E-01
2.691020E-01
-4.306822E-01
-5.358553E-01
-6.118016E-01
4.570532E-01
3.263439E-01
2.063014E-01
7.902990E-02
-4.210349E-02
-1.823148E-01
-2.524954E-01
-4.106890E-01
-4.637753E-01
-5.595657E-01
-6.062244E-01
-6.558864E-01
1.050612E-01
-3.706963E-02
-1.586050E-01
-2.816014E-01
-3.868712E-01
-5.076326E-01
-5.597194E-01
-6.690435E-01
2.691020E-01
1.906697E-01
4.310301E-02
-7.917312E-02
-2.045048E-01
-3.144536E-01
-4.306822E-01
-5.358553E-01
-6.118016E-01
-6.558864E-01
-6.979532E-01
-9.902782E-02
-1.784597E-01
-3.201673E-01
-4.286914E-01
-5.344954E-01
-6.169613E-01
-6.964516E-01
1.050612E-01
-3.706963E-02
-1.586050E-01
-2.816014E-01
-3.868712E-01
-5.076326E-01
-5.597194E-01
-6.690435E-01
-6.979532E-01
-7.514246E-01
-2.629254E-01
-3.948397E-01
-4.993652E-01
-5.993614E-01
-6.727412E-01
-7.556679E-01
-9.902782E-02
-1.784597E-01
-3.201673E-01
-4.286914E-01
-5.344954E-01
-6.169613E-01
-6.964516E-01
-7.514246E-01
-7.817312E-01
-4.520816E-01
-5.204202E-01
-6.346951E-01
-7.129452E-01
-7.831139E-01
-2.629254E-01
-3.948397E-01
-4.993652E-01
-5.993614E-01
-6.727412E-01
-7.556679E-01
-7.817312E-01
-8.255423E-01
-5.908840E-01
-6.924990E-01
-7.641016E-01
-8.258741E-01
-4.520816E-01
-5.204202E-01
-6.346951E-01
-7.129452E-01
-7.831139E-01
-8.255423E-01
-8.561925E-01
-7.363100E-01
-7.831514E-01
-8.525963E-01
-5.908840E-01
-6.924990E-01
-7.641016E-01
-8.258741E-01
-8.561925E-01
-8.886596E-01
-8.288859E-01
-8.847316E-01
-7.363100E-01
-7.831514E-01
-8.525963E-01
-8.886596E-01
-9.125105E-01
-9.084419E-01
-8.288859E-01
-8.847316E-01
-9.125105E-01
-9.266549E-01
-9.084419E-01
-9.266549E-01
-9.406974E-01
-9.406974E-01
