# vtk DataFile Version 2.0
Grille
ASCII
DATASET POLYDATA
POINTS 481 float
0.000000E+00 8.750000E-01 -7.983676E-01
6.250000E-02 8.750000E-01 -7.830272E-01
1.250000E-01 8.750000E-01 -7.375955E-01
1.250000E-01 9.375000E-01 -7.830272E-01
1.250000E-01 1.000000E+00 -7.983676E-01
6.250000E-02 1.000000E+00 -8.475425E-01
0.000000E+00 1.000000E+00 -8.641468E-01
0.000000E+00 9.375000E-01 -8.475425E-01
3.750000E-02 9.125000E-01 -8.259377E-01
8.125000E-02 9.187500E-01 -8.090558E-01
8.750000E-02 9.625000E-01 -8.259377E-01
4.375000E-02 9.562500E-01 -8.479248E-01
1.875000E-01 8.750000E-01 -6.638184E-01
2.500000E-01 8.750000E-01 -5.645311E-01
2.500000E-01 9.375000E-01 -5.993031E-01
2.500000E-01 1.000000E+00 -6.110441E-01
1.875000E-01 1.000000E+00 -7.185118E-01
1.625000E-01 9.125000E-01 -7.256572E-01
2.062500E-01 9.187500E-01 -6.666778E-01
2.125000E-01 9.625000E-01 -6.739252E-01
1.687500E-01 9.562500E-01 -7.384984E-01
0.000000E+00 7.500000E-01 -6.110441E-01
6.250000E-02 7.500000E-01 -5.993031E-01
1.250000E-01 7.500000E-01 -5.645311E-01
1.250000E-01 8.125000E-01 -6.638184E-01
0.000000E+00 8.125000E-01 -7.185118E-01
3.750000E-02 7.875000E-01 -6.739252E-01
8.125000E-02 7.937500E-01 -6.666778E-01
8.750000E-02 8.375000E-01 -7.256572E-01
4.375000E-02 8.312500E-01 -7.384984E-01
1.875000E-01 7.500000E-01 -5.080646E-01
2.500000E-01 7.500000E-01 -4.320734E-01
2.500000E-01 8.125000E-01 -5.080646E-01
1.625000E-01 7.875000E-01 -5.921012E-01
2.062500E-01 7.937500E-01 -5.493556E-01
2.125000E-01 8.375000E-01 -5.921012E-01
1.687500E-01 8.312500E-01 -6.431937E-01
3.125000E-01 8.750000E-01 -4.435493E-01
3.750000E-01 8.750000E-01 -3.055220E-01
3.750000E-01 9.375000E-01 -3.243405E-01
3.750000E-01 1.000000E+00 -3.306947E-01
3.125000E-01 1.000000E+00 -4.800943E-01
2.875000E-01 9.125000E-01 -5.149021E-01
3.312500E-01 9.187500E-01 -4.228043E-01
3.375000E-01 9.625000E-01 -4.193137E-01
2.937500E-01 9.562500E-01 -5.166423E-01
4.375000E-01 8.750000E-01 -1.557538E-01
5.000000E-01 8.750000E-01 -4.888592E-17
5.000000E-01 9.375000E-01 -5.189701E-17
5.000000E-01 1.000000E+00 -5.291373E-17
4.375000E-01 1.000000E+00 -1.685867E-01
4.125000E-01 9.125000E-01 -2.257577E-01
4.562500E-01 9.187500E-01 -1.145626E-01
4.625000E-01 9.625000E-01 -1.008655E-01
4.187500E-01 9.562500E-01 -2.161321E-01
3.125000E-01 7.500000E-01 -3.394779E-01
3.750000E-01 7.500000E-01 -2.338365E-01
3.750000E-01 8.125000E-01 -2.749626E-01
2.875000E-01 7.875000E-01 -4.201352E-01
3.312500E-01 7.937500E-01 -3.483990E-01
3.375000E-01 8.375000E-01 -3.684032E-01
2.937500E-01 8.312500E-01 -4.499686E-01
4.375000E-01 7.500000E-01 -1.192088E-01
5.000000E-01 7.500000E-01 -3.741566E-17
5.000000E-01 8.125000E-01 -4.399616E-17
4.125000E-01 7.875000E-01 -1.842074E-01
4.562500E-01 7.937500E-01 -9.440180E-02
4.625000E-01 8.375000E-01 -8.861905E-02
4.187500E-01 8.312500E-01 -1.882398E-01
0.000000E+00 6.250000E-01 -3.306947E-01
6.250000E-02 6.250000E-01 -3.243405E-01
1.250000E-01 6.250000E-01 -3.055220E-01
1.250000E-01 6.875000E-01 -4.435493E-01
0.000000E+00 6.875000E-01 -4.800943E-01
3.750000E-02 6.625000E-01 -4.193137E-01
8.125000E-02 6.687500E-01 -4.228043E-01
8.750000E-02 7.125000E-01 -5.149021E-01
4.375000E-02 7.062500E-01 -5.166423E-01
1.875000E-01 6.250000E-01 -2.749626E-01
2.500000E-01 6.250000E-01 -2.338365E-01
2.500000E-01 6.875000E-01 -3.394779E-01
1.625000E-01 6.625000E-01 -3.684032E-01
2.062500E-01 6.687500E-01 -3.483990E-01
2.125000E-01 7.125000E-01 -4.201352E-01
1.687500E-01 7.062500E-01 -4.499686E-01
0.000000E+00 5.000000E-01 5.291373E-17
6.250000E-02 5.000000E-01 5.189701E-17
1.250000E-01 5.000000E-01 4.888592E-17
1.250000E-01 5.625000E-01 -1.557538E-01
0.000000E+00 5.625000E-01 -1.685867E-01
3.750000E-02 5.375000E-01 -1.008655E-01
8.125000E-02 5.437500E-01 -1.145626E-01
8.750000E-02 5.875000E-01 -2.257577E-01
4.375000E-02 5.812500E-01 -2.161321E-01
1.875000E-01 5.000000E-01 4.399616E-17
2.500000E-01 5.000000E-01 3.741566E-17
2.500000E-01 5.625000E-01 -1.192088E-01
1.625000E-01 5.375000E-01 -8.861905E-02
2.062500E-01 5.437500E-01 -9.440180E-02
2.125000E-01 5.875000E-01 -1.842074E-01
1.687500E-01 5.812500E-01 -1.882398E-01
3.125000E-01 6.250000E-01 -1.837241E-01
3.750000E-01 6.250000E-01 -1.265514E-01
3.750000E-01 6.875000E-01 -1.837241E-01
2.875000E-01 6.625000E-01 -2.614065E-01
3.312500E-01 6.687500E-01 -2.209532E-01
3.375000E-01 7.125000E-01 -2.614065E-01
2.937500E-01 7.062500E-01 -3.147912E-01
4.375000E-01 6.250000E-01 -6.451533E-02
5.000000E-01 6.250000E-01 -2.024921E-17
5.000000E-01 6.875000E-01 -2.939730E-17
4.125000E-01 6.625000E-01 -1.146132E-01
4.562500E-01 6.687500E-01 -5.986922E-02
4.625000E-01 7.125000E-01 -6.288111E-02
4.187500E-01 7.062500E-01 -1.316898E-01
3.125000E-01 5.000000E-01 2.939730E-17
3.750000E-01 5.000000E-01 2.024921E-17
3.750000E-01 5.625000E-01 -6.451533E-02
2.875000E-01 5.375000E-01 -6.288111E-02
3.312500E-01 5.437500E-01 -5.986922E-02
3.375000E-01 5.875000E-01 -1.146132E-01
2.937500E-01 5.812500E-01 -1.316898E-01
4.375000E-01 5.000000E-01 1.032296E-17
5.000000E-01 5.000000E-01 3.240032E-33
5.000000E-01 5.625000E-01 -1.032296E-17
4.125000E-01 5.375000E-01 -2.757009E-02
4.562500E-01 5.437500E-01 -1.622209E-02
4.625000E-01 5.875000E-01 -2.757009E-02
4.187500E-01 5.812500E-01 -5.509109E-02
5.625000E-01 8.750000E-01 1.557538E-01
6.250000E-01 8.750000E-01 3.055220E-01
6.250000E-01 9.375000E-01 3.243405E-01
6.250000E-01 1.000000E+00 3.306947E-01
5.625000E-01 1.000000E+00 1.685867E-01
5.375000E-01 9.125000E-01 9.775617E-02
5.812500E-01 9.187500E-01 2.111203E-01
5.875000E-01 9.625000E-01 2.329385E-01
5.437500E-01 9.562500E-01 1.172822E-01
6.875000E-01 8.750000E-01 4.435493E-01
7.500000E-01 8.750000E-01 5.645311E-01
7.500000E-01 9.375000E-01 5.993031E-01
7.500000E-01 1.000000E+00 6.110441E-01
6.875000E-01 1.000000E+00 4.800943E-01
6.625000E-01 9.125000E-01 4.063876E-01
7.062500E-01 9.187500E-01 5.046619E-01
7.125000E-01 9.625000E-01 5.312798E-01
6.687500E-01 9.562500E-01 4.328414E-01
5.625000E-01 7.500000E-01 1.192088E-01
6.250000E-01 7.500000E-01 2.338365E-01
6.250000E-01 8.125000E-01 2.749626E-01
5.375000E-01 7.875000E-01 7.976430E-02
5.812500E-01 7.937500E-01 1.739672E-01
5.875000E-01 8.375000E-01 2.046565E-01
5.437500E-01 8.312500E-01 1.021467E-01
6.875000E-01 7.500000E-01 3.394779E-01
7.500000E-01 7.500000E-01 4.320734E-01
7.500000E-01 8.125000E-01 5.080646E-01
6.625000E-01 7.875000E-01 3.315926E-01
7.062500E-01 7.937500E-01 4.158513E-01
7.125000E-01 8.375000E-01 4.667750E-01
6.687500E-01 8.312500E-01 3.769823E-01
8.125000E-01 8.750000E-01 6.638184E-01
8.750000E-01 8.750000E-01 7.375955E-01
8.750000E-01 9.375000E-01 7.830272E-01
8.750000E-01 1.000000E+00 7.983676E-01
8.125000E-01 1.000000E+00 7.185118E-01
7.875000E-01 9.125000E-01 6.531502E-01
8.312500E-01 9.187500E-01 7.213734E-01
8.375000E-01 9.625000E-01 7.487385E-01
7.937500E-01 9.562500E-01 6.825044E-01
9.375000E-01 8.750000E-01 7.830272E-01
1.000000E+00 8.750000E-01 7.983676E-01
1.000000E+00 9.375000E-01 8.475425E-01
1.000000E+00 1.000000E+00 8.641468E-01
9.375000E-01 1.000000E+00 8.475425E-01
9.125000E-01 9.125000E-01 8.004766E-01
9.562500E-01 9.187500E-01 8.282623E-01
9.625000E-01 9.625000E-01 8.522086E-01
9.187500E-01 9.562500E-01 8.282623E-01
8.125000E-01 7.500000E-01 5.080646E-01
8.750000E-01 7.500000E-01 5.645311E-01
8.750000E-01 8.125000E-01 6.638184E-01
7.875000E-01 7.875000E-01 5.329390E-01
8.312500E-01 7.937500E-01 5.944258E-01
8.375000E-01 8.375000E-01 6.578312E-01
7.937500E-01 8.312500E-01 5.944258E-01
9.375000E-01 7.500000E-01 5.993031E-01
1.000000E+00 7.500000E-01 6.110441E-01
1.000000E+00 8.125000E-01 7.185118E-01
9.125000E-01 7.875000E-01 6.531502E-01
9.562500E-01 7.937500E-01 6.825044E-01
9.625000E-01 8.375000E-01 7.487385E-01
9.187500E-01 8.312500E-01 7.213734E-01
5.625000E-01 6.250000E-01 6.451533E-02
6.250000E-01 6.250000E-01 1.265514E-01
6.250000E-01 6.875000E-01 1.837241E-01
5.375000E-01 6.625000E-01 4.962905E-02
5.812500E-01 6.687500E-01 1.103293E-01
5.875000E-01 7.125000E-01 1.452174E-01
5.437500E-01 7.062500E-01 7.146029E-02
6.875000E-01 6.250000E-01 1.837241E-01
7.500000E-01 6.250000E-01 2.338365E-01
7.500000E-01 6.875000E-01 3.394779E-01
6.625000E-01 6.625000E-01 2.063157E-01
7.062500E-01 6.687500E-01 2.637311E-01
7.125000E-01 7.125000E-01 3.312079E-01
6.687500E-01 7.062500E-01 2.637311E-01
5.625000E-01 5.000000E-01 -1.032296E-17
6.250000E-01 5.000000E-01 -2.024921E-17
6.250000E-01 5.625000E-01 6.451533E-02
5.375000E-01 5.375000E-01 1.193822E-02
5.812500E-01 5.437500E-01 2.989470E-02
5.875000E-01 5.875000E-01 6.367027E-02
5.437500E-01 5.812500E-01 2.989470E-02
6.875000E-01 5.000000E-01 -2.939730E-17
7.500000E-01 5.000000E-01 -3.741566E-17
7.500000E-01 5.625000E-01 1.192088E-01
6.625000E-01 5.375000E-01 4.962905E-02
7.062500E-01 5.437500E-01 7.146029E-02
7.125000E-01 5.875000E-01 1.452174E-01
6.687500E-01 5.812500E-01 1.103293E-01
8.125000E-01 6.250000E-01 2.749626E-01
8.750000E-01 6.250000E-01 3.055220E-01
8.750000E-01 6.875000E-01 4.435493E-01
7.875000E-01 6.625000E-01 3.315926E-01
8.312500E-01 6.687500E-01 3.769823E-01
8.375000E-01 7.125000E-01 4.667750E-01
7.937500E-01 7.062500E-01 4.158513E-01
9.375000E-01 6.250000E-01 3.243405E-01
1.000000E+00 6.250000E-01 3.306947E-01
1.000000E+00 6.875000E-01 4.800943E-01
9.125000E-01 6.625000E-01 4.063876E-01
9.562500E-01 6.687500E-01 4.328414E-01
9.625000E-01 7.125000E-01 5.312798E-01
9.187500E-01 7.062500E-01 5.046619E-01
8.125000E-01 5.000000E-01 -4.399616E-17
8.750000E-01 5.000000E-01 -4.888592E-17
8.750000E-01 5.625000E-01 1.557538E-01
7.875000E-01 5.375000E-01 7.976430E-02
8.312500E-01 5.437500E-01 1.021467E-01
8.375000E-01 5.875000E-01 2.046565E-01
7.937500E-01 5.812500E-01 1.739672E-01
9.375000E-01 5.000000E-01 -5.189701E-17
1.000000E+00 5.000000E-01 -5.291373E-17
1.000000E+00 5.625000E-01 1.685867E-01
9.125000E-01 5.375000E-01 9.775617E-02
9.562500E-01 5.437500E-01 1.172822E-01
9.625000E-01 5.875000E-01 2.329385E-01
9.187500E-01 5.812500E-01 2.111203E-01
0.000000E+00 3.750000E-01 3.306947E-01
6.250000E-02 3.750000E-01 3.243405E-01
[...]
CELL_DATA 896
SCALARS sol float 1
LOOKUP_TABLE default
-8.024441E-01
-8.060069E-01
-8.239493E-01
-7.732977E-01
-8.276394E-01
-7.765595E-01
-8.404683E-01
-7.517926E-01
-7.490609E-01
-8.276394E-01
-7.765595E-01
-7.487600E-01
-8.532047E-01
-7.103118E-01
-7.102778E-01
-8.404683E-01
-8.060069E-01
-7.487600E-01
-7.090237E-01
-8.532047E-01
-6.930338E-01
-6.678270E-01
-6.853845E-01
-8.239493E-01
-8.024441E-01
-7.090237E-01
-7.490609E-01
-6.815358E-01
-6.466354E-01
-6.280908E-01
-6.316758E-01
-7.732977E-01
-6.853845E-01
-6.815358E-01
-7.102778E-01
-6.330378E-01
-6.101707E-01
-5.756632E-01
-6.068169E-01
-7.517926E-01
-6.316758E-01
-6.330378E-01
-6.930338E-01
-5.948835E-01
-5.595788E-01
-5.359269E-01
-5.436158E-01
-5.548990E-01
-7.103118E-01
-6.101707E-01
-6.068169E-01
-5.948835E-01
-6.466354E-01
-5.498405E-01
-5.076608E-01
-4.720168E-01
-4.847829E-01
-5.075214E-01
-6.678270E-01
-5.595788E-01
-5.548990E-01
-5.498405E-01
-6.280908E-01
-4.964979E-01
-4.604185E-01
-4.860163E-01
-4.529201E-01
-4.100342E-01
-4.593895E-01
-5.076608E-01
-5.436158E-01
-5.075214E-01
-4.964979E-01
-5.756632E-01
-4.534244E-01
-3.906252E-01
-4.206403E-01
-3.888195E-01
-3.581163E-01
-4.061676E-01
-4.604185E-01
-4.860163E-01
-4.847829E-01
-4.593895E-01
-4.534244E-01
-5.359269E-01
-3.972288E-01
-3.508889E-01
-3.724915E-01
-3.889236E-01
-2.903891E-01
-3.693374E-01
-3.906252E-01
-4.206403E-01
-4.529201E-01
-4.061676E-01
-3.972288E-01
-4.720168E-01
-3.621142E-01
-2.852068E-01
-3.162959E-01
-3.305882E-01
-2.384712E-01
-2.554101E-01
-3.072378E-01
-3.508889E-01
-3.724915E-01
-3.889236E-01
-3.888195E-01
-3.693374E-01
-3.621142E-01
-4.100342E-01
-3.052252E-01
-2.290112E-01
-2.562415E-01
-2.857327E-01
-1.618615E-01
-1.854841E-01
-2.782403E-01
-2.852068E-01
-3.162959E-01
-3.305882E-01
-3.581163E-01
-3.072378E-01
-3.052252E-01
-2.657170E-01
-2.165052E-01
-1.653580E-01
-2.158033E-01
-2.310021E-01
-1.438534E-01
-8.981741E-02
-2.263224E-01
-2.290112E-01
-2.554101E-01
-2.562415E-01
-2.857327E-01
-2.903891E-01
-2.782403E-01
-2.657170E-01
-2.220279E-01
-1.442042E-01
-9.010545E-02
-1.556163E-01
-1.790842E-01
-7.180936E-02
-3.362185E-02
-1.830834E-01
-1.653580E-01
-2.165052E-01
-1.854841E-01
-2.158033E-01
-2.310021E-01
-2.384712E-01
-2.263224E-01
-2.220279E-01
-1.770762E-01
-1.237536E-01
-8.145761E-02
-3.818752E-02
-1.326060E-01
-1.615783E-01
3.909407E-02
-1.433423E-01
-9.010545E-02
-1.442042E-01
-1.438534E-01
-1.556163E-01
-1.790842E-01
-1.618615E-01
-1.830834E-01
-1.770762E-01
-1.416296E-01
-6.100695E-02
-2.953968E-02
3.258539E-02
-7.120353E-02
-1.045932E-01
9.528963E-02
7.167946E-02
-1.020574E-01
-3.818752E-02
-8.145761E-02
-1.237536E-01
-7.180936E-02
-1.326060E-01
-1.615783E-01
-8.981741E-02
-1.433423E-01
-1.416296E-01
-1.018933E-01
-3.146727E-02
3.404890E-02
8.450332E-02
-6.069663E-02
-8.481336E-02
1.729358E-01
1.420529E-01
-7.966590E-02
3.258539E-02
-2.953968E-02
-6.100695E-02
-3.362185E-02
-7.120353E-02
-1.045932E-01
-1.020574E-01
-1.018933E-01
-8.205260E-02
2.658810E-02
8.596683E-02
6.063700E-02
1.548767E-01
-2.096037E-02
-4.091677E-02
1.871137E-01
2.440733E-01
-4.146152E-02
8.450332E-02
7.167946E-02
3.404890E-02
-3.146727E-02
3.909407E-02
-6.069663E-02
-8.481336E-02
-7.966590E-02
-8.205260E-02
-4.905884E-02
6.632436E-02
1.541857E-01
1.186261E-01
2.241320E-01
2.382010E-02
-1.995641E-02
2.561331E-01
2.959912E-01
-3.069514E-02
1.548767E-01
8.596683E-02
1.420529E-01
6.063700E-02
2.658810E-02
9.528963E-02
-2.096037E-02
-4.091677E-02
-4.146152E-02
-4.905884E-02
-3.296109E-02
6.355636E-02
1.243134E-01
1.602568E-01
2.219774E-01
2.803276E-01
4.036311E-02
1.654302E-02
3.626255E-01
-9.190030E-03
2.241320E-01
1.541857E-01
1.871137E-01
1.186261E-01
6.632436E-02
1.729358E-01
2.382010E-02
-1.995641E-02
-3.069514E-02
-3.296109E-02
-1.459739E-02
1.119622E-01
1.756708E-01
2.178621E-01
2.617137E-01
3.454167E-01
7.713954E-02
3.804813E-02
4.145434E-01
3.878565E-01
9.964898E-03
2.803276E-01
2.219774E-01
1.602568E-01
2.561331E-01
1.243134E-01
6.355636E-02
2.440733E-01
4.036311E-02
1.654302E-02
-9.190030E-03
-1.459739E-02
-5.407365E-03
1.090023E-01
1.660875E-01
2.275888E-01
3.191557E-01
3.851530E-01
7.482455E-02
3.147001E-02
4.814051E-01
4.479636E-01
1.394431E-02
3.454167E-01
2.617137E-01
2.178621E-01
2.959912E-01
1.756708E-01
1.119622E-01
7.713954E-02
3.804813E-02
9.964898E-03
-5.407365E-03
3.979408E-03
1.464236E-01
1.875927E-01
2.801305E-01
3.753512E-01
3.278458E-01
4.515329E-01
1.004653E-01
5.269343E-02
4.895944E-01
5.408061E-01
2.390920E-02
3.851530E-01
3.878565E-01
3.191557E-01
2.275888E-01
3.626255E-01
1.660875E-01
1.090023E-01
7.482455E-02
3.147001E-02
1.394431E-02
3.979408E-03
3.979408E-03
1.402016E-01
2.270972E-01
3.016357E-01
4.291022E-01
3.748088E-01
5.042474E-01
8.491233E-02
4.115322E-02
5.450816E-01
5.805423E-01
1.394431E-02
4.515329E-01
3.753512E-01
4.479636E-01
3.278458E-01
2.801305E-01
4.145434E-01
1.875927E-01
1.464236E-01
1.004653E-01
5.269343E-02
2.390920E-02
3.979408E-03
-5.407365E-03
1.721971E-01
2.790152E-01
2.179236E-01
3.623073E-01
4.198695E-01
4.916185E-01
5.561654E-01
8.491233E-02
5.269343E-02
6.309505E-01
9.964898E-03
5.042474E-01
4.291022E-01
4.895944E-01
3.748088E-01
3.016357E-01
4.814051E-01
2.270972E-01
1.402016E-01
8.491233E-02
4.115322E-02
1.394431E-02
-5.407365E-03
-1.459739E-02
1.721971E-01
3.114723E-01
2.445927E-01
3.958009E-01
4.635636E-01
5.131236E-01
6.056615E-01
1.004653E-01
3.147001E-02
6.706868E-01
6.449859E-01
-9.190030E-03
5.561654E-01
4.916185E-01
4.198695E-01
5.450816E-01
3.623073E-01
2.790152E-01
5.408061E-01
2.179236E-01
1.721971E-01
8.491233E-02
5.269343E-02
9.964898E-03
-1.459739E-02
-3.296109E-02
1.402016E-01
2.179236E-01
2.862234E-01
3.675864E-01
4.519965E-01
5.556739E-01
6.271666E-01
7.482455E-02
3.804813E-02
7.165849E-01
6.856760E-01
-3.069514E-02
6.056615E-01
5.131236E-01
4.635636E-01
5.805423E-01
3.958009E-01
3.114723E-01
2.445927E-01
1.721971E-01
1.004653E-01
3.147001E-02
-9.190030E-03
-3.296109E-02
-4.905884E-02
1.464236E-01
2.270972E-01
3.114723E-01
3.675864E-01
4.910257E-01
6.075918E-01
5.451431E-01
6.794473E-01
7.713954E-02
1.654302E-02
7.175388E-01
7.552060E-01
-4.146152E-02
6.271666E-01
6.449859E-01
5.556739E-01
4.519965E-01
6.309505E-01
3.675864E-01
2.862234E-01
2.179236E-01
1.402016E-01
7.482455E-02
3.804813E-02
-3.069514E-02
-4.905884E-02
-8.205260E-02
1.090023E-01
1.875927E-01
2.790152E-01
3.958009E-01
4.910257E-01
6.386918E-01
5.739302E-01
7.075957E-01
4.036311E-02
-1.995641E-02
7.510464E-01
7.767111E-01
-7.966590E-02
6.794473E-01
6.075918E-01
6.856760E-01
5.451431E-01
4.910257E-01
6.706868E-01
3.675864E-01
3.114723E-01
2.270972E-01
1.464236E-01
7.713954E-02
1.654302E-02
-4.146152E-02
-8.205260E-02
-1.018933E-01
1.119622E-01
1.660875E-01
3.016357E-01
4.519965E-01
3.623073E-01
5.451431E-01
6.155609E-01
6.864150E-01
7.473320E-01
2.382010E-02
-4.091677E-02
8.032190E-01
-1.020574E-01
7.075957E-01
6.386918E-01
7.175388E-01
5.739302E-01
4.910257E-01
7.165849E-01
3.958009E-01
2.790152E-01
1.875927E-01
1.090023E-01
4.036311E-02
-1.995641E-02
-7.966590E-02
-1.018933E-01
-1.416296E-01
6.355636E-02
1.756708E-01
2.801305E-01
4.635636E-01
3.748088E-01
5.556739E-01
6.386918E-01
6.864150E-01
7.736997E-01
-2.096037E-02
-8.481336E-02
8.247241E-01
8.039220E-01
-1.433423E-01
7.473320E-01
6.864150E-01
6.155609E-01
7.510464E-01
5.451431E-01
4.519965E-01
7.552060E-01
3.623073E-01
3.016357E-01
1.660875E-01
1.119622E-01
2.382010E-02
-4.091677E-02
-1.020574E-01
-1.416296E-01
-1.770762E-01
6.632436E-02
2.275888E-01
1.243134E-01
3.278458E-01
4.198695E-01
5.131236E-01
6.075918E-01
7.075957E-01
7.736997E-01
-6.069663E-02
-1.045932E-01
8.426711E-01
8.190004E-01
-1.830834E-01
7.736997E-01
6.864150E-01
6.386918E-01
7.767111E-01
5.556739E-01
4.635636E-01
3.748088E-01
2.801305E-01
1.756708E-01
6.355636E-02
-2.096037E-02
-8.481336E-02
-1.433423E-01
-1.770762E-01
-2.220279E-01
2.658810E-02
2.178621E-01
1.186261E-01
3.191557E-01
4.291022E-01
4.916185E-01
6.271666E-01
7.473320E-01
6.794473E-01
8.039220E-01
-7.120353E-02
-1.615783E-01
8.362444E-01
8.546327E-01
-2.263224E-01
7.736997E-01
8.039220E-01
7.075957E-01
6.075918E-01
8.032190E-01
5.131236E-01
4.198695E-01
3.278458E-01
2.275888E-01
1.243134E-01
6.632436E-02
-6.069663E-02
-1.045932E-01
-1.830834E-01
-2.220279E-01
-2.657170E-01
6.063700E-02
-3.146727E-02
1.602568E-01
2.617137E-01
3.753512E-01
5.042474E-01
6.056615E-01
7.510464E-01
6.856760E-01
8.032190E-01
-1.326060E-01
-1.790842E-01
8.426711E-01
8.546327E-01
-2.782403E-01
8.039220E-01
7.473320E-01
8.190004E-01
6.794473E-01
6.271666E-01
8.247241E-01
4.916185E-01
4.291022E-01
3.191557E-01
2.178621E-01
1.186261E-01
2.658810E-02
-7.120353E-02
-1.615783E-01
-2.263224E-01
-2.657170E-01
-3.052252E-01
3.404890E-02
-6.100695E-02
1.541857E-01
2.219774E-01
3.851530E-01
5.561654E-01
4.515329E-01
6.449859E-01
7.175388E-01
7.767111E-01
8.247241E-01
-1.556163E-01
-2.310021E-01
-3.072378E-01
8.032190E-01
7.510464E-01
8.362444E-01
6.856760E-01
6.056615E-01
8.426711E-01
5.042474E-01
3.753512E-01
2.617137E-01
1.602568E-01
6.063700E-02
-3.146727E-02
-1.326060E-01
-1.790842E-01
-2.782403E-01
-3.052252E-01
-3.621142E-01
8.596683E-02
-2.953968E-02
-1.237536E-01
2.241320E-01
3.454167E-01
5.450816E-01
4.479636E-01
6.309505E-01
7.165849E-01
7.552060E-01
-2.158033E-01
-2.857327E-01
-3.693374E-01
8.247241E-01
7.767111E-01
7.175388E-01
8.426711E-01
6.449859E-01
5.561654E-01
8.546327E-01
4.515329E-01
3.851530E-01
2.219774E-01
1.541857E-01
3.404890E-02
-6.100695E-02
-1.556163E-01
-2.310021E-01
-3.072378E-01
-3.621142E-01
-3.972288E-01
8.450332E-02
-8.145761E-02
-1.442042E-01
2.803276E-01
1.548767E-01
3.878565E-01
4.895944E-01
5.805423E-01
6.706868E-01
-2.562415E-01
-3.305882E-01
-4.061676E-01
7.552060E-01
7.165849E-01
8.546327E-01
6.309505E-01
5.450816E-01
4.479636E-01
3.454167E-01
2.241320E-01
8.596683E-02
-2.953968E-02
-1.237536E-01
-2.158033E-01
-2.857327E-01
-3.693374E-01
-3.972288E-01
-4.534244E-01
3.258539E-02
-9.010545E-02
-2.165052E-01
2.561331E-01
1.420529E-01
3.626255E-01
4.814051E-01
5.408061E-01
-3.162959E-01
-3.889236E-01
-4.593895E-01
6.706868E-01
5.805423E-01
4.895944E-01
3.878565E-01
2.803276E-01
1.548767E-01
8.450332E-02
-8.145761E-02
-1.442042E-01
-2.562415E-01
-3.305882E-01
-4.061676E-01
-4.534244E-01
-4.964979E-01
7.167946E-02
-3.818752E-02
-1.653580E-01
-2.290112E-01
1.871137E-01
2.959912E-01
4.145434E-01
-3.724915E-01
-4.206403E-01
-5.075214E-01
5.408061E-01
4.814051E-01
3.626255E-01
2.561331E-01
1.420529E-01
3.258539E-02
-9.010545E-02
-2.165052E-01
-3.162959E-01
-3.889236E-01
-4.593895E-01
-4.964979E-01
-5.498405E-01
3.909407E-02
-7.180936E-02
-1.854841E-01
-2.852068E-01
1.729358E-01
2.440733E-01
-3.906252E-01
-4.860163E-01
-5.548990E-01
4.145434E-01
2.959912E-01
1.871137E-01
7.167946E-02
-3.818752E-02
-1.653580E-01
-2.290112E-01
-3.724915E-01
-4.206403E-01
-5.075214E-01
-5.498405E-01
-5.948835E-01
9.528963E-02
-3.362185E-02
-1.438534E-01
-2.554101E-01
-3.508889E-01
-4.604185E-01
-5.076608E-01
-6.068169E-01
2.440733E-01
1.729358E-01
3.909407E-02
-7.180936E-02
-1.854841E-01
-2.852068E-01
-3.906252E-01
-4.860163E-01
-5.548990E-01
-5.948835E-01
-6.330378E-01
-8.981741E-02
-1.618615E-01
-2.903891E-01
-3.888195E-01
-4.847829E-01
-5.595788E-01
-6.316758E-01
9.528963E-02
-3.362185E-02
-1.438534E-01
-2.554101E-01
-3.508889E-01
-4.604185E-01
-5.076608E-01
-6.068169E-01
-6.330378E-01
-6.815358E-01
-2.384712E-01
-3.581163E-01
-4.529201E-01
-5.436158E-01
-6.101707E-01
-6.853845E-01
-8.981741E-02
-1.618615E-01
-2.903891E-01
-3.888195E-01
-4.847829E-01
-5.595788E-01
-6.316758E-01
-6.815358E-01
-7.090237E-01
-4.100342E-01
-4.720168E-01
-5.756632E-01
-6.466354E-01
-7.102778E-01
-2.384712E-01
-3.581163E-01
-4.529201E-01
-5.436158E-01
-6.101707E-01
-6.853845E-01
-7.090237E-01
-7.487600E-01
-5.359269E-01
-6.280908E-01
-6.930338E-01
-7.490609E-01
-4.100342E-01
-4.720168E-01
-5.756632E-01
-6.466354E-01
-7.102778E-01
-7.487600E-01
-7.765595E-01
-6.678270E-01
-7.103118E-01
-7.732977E-01
-5.359269E-01
-6.280908E-01
-6.930338E-01
-7.490609E-01
-7.765595E-01
-8.060069E-01
-7.517926E-01
-8.024441E-01
-6.678270E-01
-7.103118E-01
-7.732977E-01
-8.060069E-01
-8.276394E-01
-8.239493E-01
-7.517926E-01
-8.024441E-01
-8.276394E-01
-8.404683E-01
-8.239493E-01
-8.404683E-01
-8.532047E-01
-8.532047E-01
