# vtk DataFile Version 2.0
Grille
ASCII
DATASET POLYDATA
POINTS 481 float
0.000000E+00 8.750000E-01 -5.082501E-01
6.250000E-02 8.750000E-01 -4.984842E-01
1.250000E-01 8.750000E-01 -4.695619E-01
1.250000E-01 9.375000E-01 -4.984842E-01
1.250000E-01 1.000000E+00 -5.082501E-01
6.250000E-02 1.000000E+00 -5.395555E-01
0.000000E+00 1.000000E+00 -5.501260E-01
0.000000E+00 9.375000E-01 -5.395555E-01
3.750000E-02 9.125000E-01 -5.258016E-01
8.125000E-02 9.187500E-01 -5.150543E-01
8.750000E-02 9.625000E-01 -5.258016E-01
4.375000E-02 9.562500E-01 -5.397988E-01
1.875000E-01 8.750000E-01 -4.225945E-01
2.500000E-01 8.750000E-01 -3.593871E-01
2.500000E-01 9.375000E-01 -3.815233E-01
2.500000E-01 1.000000E+00 -3.889978E-01
1.875000E-01 1.000000E+00 -4.574130E-01
1.625000E-01 9.125000E-01 -4.619619E-01
2.062500E-01 9.187500E-01 -4.244149E-01
2.125000E-01 9.625000E-01 -4.290286E-01
1.687500E-01 9.562500E-01 -4.701367E-01
0.000000E+00 7.500000E-01 -3.889978E-01
6.250000E-02 7.500000E-01 -3.815233E-01
1.250000E-01 7.500000E-01 -3.593871E-01
1.250000E-01 8.125000E-01 -4.225945E-01
0.000000E+00 8.125000E-01 -4.574130E-01
3.750000E-02 7.875000E-01 -4.290286E-01
8.125000E-02 7.937500E-01 -4.244149E-01
8.750000E-02 8.375000E-01 -4.619619E-01
4.375000E-02 8.312500E-01 -4.701367E-01
1.875000E-01 7.500000E-01 -3.234399E-01
2.500000E-01 7.500000E-01 -2.750630E-01
2.500000E-01 8.125000E-01 -3.234399E-01
1.625000E-01 7.875000E-01 -3.769385E-01
2.062500E-01 7.937500E-01 -3.497262E-01
2.125000E-01 8.375000E-01 -3.769385E-01
1.687500E-01 8.312500E-01 -4.094646E-01
3.125000E-01 8.750000E-01 -2.823686E-01
3.750000E-01 8.750000E-01 -1.944989E-01
3.750000E-01 9.375000E-01 -2.064789E-01
3.750000E-01 1.000000E+00 -2.105241E-01
3.125000E-01 1.000000E+00 -3.056336E-01
2.875000E-01 9.125000E-01 -3.277927E-01
3.312500E-01 9.187500E-01 -2.691621E-01
3.375000E-01 9.625000E-01 -2.669400E-01
2.937500E-01 9.562500E-01 -3.289005E-01
4.375000E-01 8.750000E-01 -9.915468E-02
5.000000E-01 8.750000E-01 -3.112134E-17
5.000000E-01 9.375000E-01 -3.303824E-17
5.000000E-01 1.000000E+00 -3.368550E-17
4.375000E-01 1.000000E+00 -1.073243E-01
4.125000E-01 9.125000E-01 -1.437200E-01
4.562500E-01 9.187500E-01 -7.293186E-02
4.625000E-01 9.625000E-01 -6.421218E-02
4.187500E-01 9.562500E-01 -1.375922E-01
3.125000E-01 7.500000E-01 -2.161156E-01
3.750000E-01 7.500000E-01 -1.488630E-01
3.750000E-01 8.125000E-01 -1.750444E-01
2.875000E-01 7.875000E-01 -2.674630E-01
3.312500E-01 7.937500E-01 -2.217949E-01
3.375000E-01 8.375000E-01 -2.345297E-01
2.937500E-01 8.312500E-01 -2.864552E-01
4.375000E-01 7.500000E-01 -7.588971E-02
5.000000E-01 7.500000E-01 -2.381925E-17
5.000000E-01 8.125000E-01 -2.800847E-17
4.125000E-01 7.875000E-01 -1.172686E-01
4.562500E-01 7.937500E-01 -6.009728E-02
4.625000E-01 8.375000E-01 -5.641592E-02
4.187500E-01 8.312500E-01 -1.198357E-01
0.000000E+00 6.250000E-01 -2.105241E-01
6.250000E-02 6.250000E-01 -2.064789E-01
1.250000E-01 6.250000E-01 -1.944989E-01
1.250000E-01 6.875000E-01 -2.823686E-01
0.000000E+00 6.875000E-01 -3.056336E-01
3.750000E-02 6.625000E-01 -2.669400E-01
8.125000E-02 6.687500E-01 -2.691621E-01
8.750000E-02 7.125000E-01 -3.277927E-01
4.375000E-02 7.062500E-01 -3.289005E-01
1.875000E-01 6.250000E-01 -1.750444E-01
2.500000E-01 6.250000E-01 -1.488630E-01
2.500000E-01 6.875000E-01 -2.161156E-01
1.625000E-01 6.625000E-01 -2.345297E-01
2.062500E-01 6.687500E-01 -2.217949E-01
2.125000E-01 7.125000E-01 -2.674630E-01
1.687500E-01 7.062500E-01 -2.864552E-01
0.000000E+00 5.000000E-01 3.368550E-17
6.250000E-02 5.000000E-01 3.303824E-17
1.250000E-01 5.000000E-01 3.112134E-17
1.250000E-01 5.625000E-01 -9.915468E-02
0.000000E+00 5.625000E-01 -1.073243E-01
3.750000E-02 5.375000E-01 -6.421218E-02
8.125000E-02 5.437500E-01 -7.293186E-02
8.750000E-02 5.875000E-01 -1.437200E-01
4.375000E-02 5.812500E-01 -1.375922E-01
1.875000E-01 5.000000E-01 2.800847E-17
2.500000E-01 5.000000E-01 2.381925E-17
2.500000E-01 5.625000E-01 -7.588971E-02
1.625000E-01 5.375000E-01 -5.641592E-02
2.062500E-01 5.437500E-01 -6.009728E-02
2.125000E-01 5.875000E-01 -1.172686E-01
1.687500E-01 5.812500E-01 -1.198357E-01
3.125000E-01 6.250000E-01 -1.169609E-01
3.750000E-01 6.250000E-01 -8.056408E-02
3.750000E-01 6.875000E-01 -1.169609E-01
2.875000E-01 6.625000E-01 -1.664145E-01
3.312500E-01 6.687500E-01 -1.406614E-01
3.375000E-01 7.125000E-01 -1.664145E-01
2.937500E-01 7.062500E-01 -2.003998E-01
4.375000E-01 6.250000E-01 -4.107121E-02
5.000000E-01 6.250000E-01 -1.289088E-17
5.000000E-01 6.875000E-01 -1.871466E-17
4.125000E-01 6.625000E-01 -7.296407E-02
4.562500E-01 6.687500E-01 -3.811344E-02
4.625000E-01 7.125000E-01 -4.003085E-02
4.187500E-01 7.062500E-01 -8.383523E-02
3.125000E-01 5.000000E-01 1.871466E-17
3.750000E-01 5.000000E-01 1.289088E-17
3.750000E-01 5.625000E-01 -4.107121E-02
2.875000E-01 5.375000E-01 -4.003085E-02
3.312500E-01 5.437500E-01 -3.811344E-02
3.375000E-01 5.875000E-01 -7.296407E-02
2.937500E-01 5.812500E-01 -8.383523E-02
4.375000E-01 5.000000E-01 6.571715E-18
5.000000E-01 5.000000E-01 2.062642E-33
5.000000E-01 5.625000E-01 -6.571715E-18
4.125000E-01 5.375000E-01 -1.755144E-02
4.562500E-01 5.437500E-01 -1.032717E-02
4.625000E-01 5.875000E-01 -1.755144E-02
4.187500E-01 5.812500E-01 -3.507163E-02
5.625000E-01 8.750000E-01 9.915468E-02
6.250000E-01 8.750000E-01 1.944989E-01
6.250000E-01 9.375000E-01 2.064789E-01
6.250000E-01 1.000000E+00 2.105241E-01
5.625000E-01 1.000000E+00 1.073243E-01
5.375000E-01 9.125000E-01 6.223272E-02
5.812500E-01 9.187500E-01 1.344016E-01
5.875000E-01 9.625000E-01 1.482914E-01
5.437500E-01 9.562500E-01 7.466322E-02
6.875000E-01 8.750000E-01 2.823686E-01
7.500000E-01 8.750000E-01 3.593871E-01
7.500000E-01 9.375000E-01 3.815233E-01
7.500000E-01 1.000000E+00 3.889978E-01
6.875000E-01 1.000000E+00 3.056336E-01
6.625000E-01 9.125000E-01 2.587111E-01
7.062500E-01 9.187500E-01 3.212737E-01
7.125000E-01 9.625000E-01 3.382189E-01
6.687500E-01 9.562500E-01 2.755519E-01
5.625000E-01 7.500000E-01 7.588971E-02
6.250000E-01 7.500000E-01 1.488630E-01
6.250000E-01 8.125000E-01 1.750444E-01
5.375000E-01 7.875000E-01 5.077889E-02
5.812500E-01 7.937500E-01 1.107496E-01
5.875000E-01 8.375000E-01 1.302867E-01
5.437500E-01 8.312500E-01 6.502778E-02
6.875000E-01 7.500000E-01 2.161156E-01
7.500000E-01 7.500000E-01 2.750630E-01
7.500000E-01 8.125000E-01 3.234399E-01
6.625000E-01 7.875000E-01 2.110957E-01
7.062500E-01 7.937500E-01 2.647358E-01
7.125000E-01 8.375000E-01 2.971544E-01
6.687500E-01 8.312500E-01 2.399914E-01
8.125000E-01 8.750000E-01 4.225945E-01
8.750000E-01 8.750000E-01 4.695619E-01
8.750000E-01 9.375000E-01 4.984842E-01
8.750000E-01 1.000000E+00 5.082501E-01
8.125000E-01 1.000000E+00 4.574130E-01
7.875000E-01 9.125000E-01 4.158030E-01
8.312500E-01 9.187500E-01 4.592347E-01
8.375000E-01 9.625000E-01 4.766557E-01
7.937500E-01 9.562500E-01 4.344903E-01
9.375000E-01 8.750000E-01 4.984842E-01
1.000000E+00 8.750000E-01 5.082501E-01
1.000000E+00 9.375000E-01 5.395555E-01
1.000000E+00 1.000000E+00 5.501260E-01
9.375000E-01 1.000000E+00 5.395555E-01
9.125000E-01 9.125000E-01 5.095927E-01
9.562500E-01 9.187500E-01 5.272814E-01
9.625000E-01 9.625000E-01 5.425260E-01
9.187500E-01 9.562500E-01 5.272814E-01
8.125000E-01 7.500000E-01 3.234399E-01
8.750000E-01 7.500000E-01 3.593871E-01
8.750000E-01 8.125000E-01 4.225945E-01
7.875000E-01 7.875000E-01 3.392752E-01
8.312500E-01 7.937500E-01 3.784184E-01
8.375000E-01 8.375000E-01 4.187830E-01
7.937500E-01 8.312500E-01 3.784184E-01
9.375000E-01 7.500000E-01 3.815233E-01
1.000000E+00 7.500000E-01 3.889978E-01
1.000000E+00 8.125000E-01 4.574130E-01
9.125000E-01 7.875000E-01 4.158030E-01
9.562500E-01 7.937500E-01 4.344903E-01
9.625000E-01 8.375000E-01 4.766557E-01
9.187500E-01 8.312500E-01 4.592347E-01
5.625000E-01 6.250000E-01 4.107121E-02
6.250000E-01 6.250000E-01 8.056408E-02
6.250000E-01 6.875000E-01 1.169609E-01
5.375000E-01 6.625000E-01 3.159443E-02
5.812500E-01 6.687500E-01 7.023691E-02
5.875000E-01 7.125000E-01 9.244710E-02
5.437500E-01 7.062500E-01 4.549245E-02
6.875000E-01 6.250000E-01 1.169609E-01
7.500000E-01 6.250000E-01 1.488630E-01
7.500000E-01 6.875000E-01 2.161156E-01
6.625000E-01 6.625000E-01 1.313430E-01
7.062500E-01 6.687500E-01 1.678943E-01
7.125000E-01 7.125000E-01 2.108508E-01
6.687500E-01 7.062500E-01 1.678943E-01
5.625000E-01 5.000000E-01 -6.571715E-18
6.250000E-01 5.000000E-01 -1.289088E-17
6.250000E-01 5.625000E-01 4.107121E-02
5.375000E-01 5.375000E-01 7.600012E-03
5.812500E-01 5.437500E-01 1.903131E-02
5.875000E-01 5.875000E-01 4.053324E-02
5.437500E-01 5.812500E-01 1.903131E-02
6.875000E-01 5.000000E-01 -1.871466E-17
7.500000E-01 5.000000E-01 -2.381925E-17
7.500000E-01 5.625000E-01 7.588971E-02
6.625000E-01 5.375000E-01 3.159443E-02
7.062500E-01 5.437500E-01 4.549245E-02
7.125000E-01 5.875000E-01 9.244710E-02
6.687500E-01 5.812500E-01 7.023691E-02
8.125000E-01 6.250000E-01 1.750444E-01
8.750000E-01 6.250000E-01 1.944989E-01
8.750000E-01 6.875000E-01 2.823686E-01
7.875000E-01 6.625000E-01 2.110957E-01
8.312500E-01 6.687500E-01 2.399914E-01
8.375000E-01 7.125000E-01 2.971544E-01
7.937500E-01 7.062500E-01 2.647358E-01
9.375000E-01 6.250000E-01 2.064789E-01
1.000000E+00 6.250000E-01 2.105241E-01
1.000000E+00 6.875000E-01 3.056336E-01
9.125000E-01 6.625000E-01 2.587111E-01
9.562500E-01 6.687500E-01 2.755519E-01
9.625000E-01 7.125000E-01 3.382189E-01
9.187500E-01 7.062500E-01 3.212737E-01
8.125000E-01 5.000000E-01 -2.800847E-17
8.750000E-01 5.000000E-01 -3.112134E-17
8.750000E-01 5.625000E-01 9.915468E-02
7.875000E-01 5.375000E-01 5.077889E-02
8.312500E-01 5.437500E-01 6.502778E-02
8.375000E-01 5.875000E-01 1.302867E-01
7.937500E-01 5.812500E-01 1.107496E-01
9.375000E-01 5.000000E-01 -3.303824E-17
1.000000E+00 5.000000E-01 -3.368550E-17
1.000000E+00 5.625000E-01 1.073243E-01
9.125000E-01 5.375000E-01 6.223272E-02
9.562500E-01 5.437500E-01 7.466322E-02
9.625000E-01 5.875000E-01 1.482914E-01
9.187500E-01 5.812500E-01 1.344016E-01
0.000000E+00 3.750000E-01 2.105241E-01
6.250000E-02 3.750000E-01 2.064789E-01
[...]
CELL_DATA 896
SCALARS sol float 1
LOOKUP_TABLE default
-5.108453E-01
-5.131134E-01
-5.245357E-01
-4.922903E-01
-5.268849E-01
-4.943668E-01
-5.350519E-01
-4.785999E-01
-4.768609E-01
-5.268849E-01
-4.943668E-01
-4.766693E-01
-5.431601E-01
-4.521928E-01
-4.521711E-01
-5.350519E-01
-5.131134E-01
-4.766693E-01
-4.513728E-01
-5.431601E-01
-4.411934E-01
-4.251465E-01
-4.363238E-01
-5.245357E-01
-5.108453E-01
-4.513728E-01
-4.768609E-01
-4.338737E-01
-4.116556E-01
-3.998499E-01
-4.021322E-01
-4.922903E-01
-4.363238E-01
-4.338737E-01
-4.521711E-01
-4.029992E-01
-3.884418E-01
-3.664739E-01
-3.863067E-01
-4.785999E-01
-4.021322E-01
-4.029992E-01
-4.411934E-01
-3.787098E-01
-3.562344E-01
-3.411773E-01
-3.460722E-01
-3.532552E-01
-4.521928E-01
-3.884418E-01
-3.863067E-01
-3.787098E-01
-4.116556E-01
-3.500349E-01
-3.231828E-01
-3.004914E-01
-3.086184E-01
-3.230941E-01
-4.251465E-01
-3.562344E-01
-3.532552E-01
-3.500349E-01
-3.998499E-01
-3.160763E-01
-2.931078E-01
-3.094037E-01
-2.883342E-01
-2.610326E-01
-2.924527E-01
-3.231828E-01
-3.460722E-01
-3.230941E-01
-3.160763E-01
-3.664739E-01
-2.886553E-01
-2.486766E-01
-2.677845E-01
-2.475270E-01
-2.279810E-01
-2.585710E-01
-2.931078E-01
-3.094037E-01
-3.086184E-01
-2.924527E-01
-2.886553E-01
-3.411773E-01
-2.528805E-01
-2.233800E-01
-2.371324E-01
-2.475933E-01
-1.848651E-01
-2.351245E-01
-2.486766E-01
-2.677845E-01
-2.883342E-01
-2.585710E-01
-2.528805E-01
-3.004914E-01
-2.305261E-01
-1.815659E-01
-2.013577E-01
-2.104563E-01
-1.518135E-01
-1.625971E-01
-1.955912E-01
-2.233800E-01
-2.371324E-01
-2.475933E-01
-2.475270E-01
-2.351245E-01
-2.305261E-01
-2.610326E-01
-1.943099E-01
-1.457912E-01
-1.631263E-01
-1.819008E-01
-1.030429E-01
-1.180814E-01
-1.771310E-01
-1.815659E-01
-2.013577E-01
-2.104563E-01
-2.279810E-01
-1.955912E-01
-1.943099E-01
-1.691585E-01
-1.378298E-01
-1.052689E-01
-1.373829E-01
-1.470587E-01
-9.157876E-02
-5.717881E-02
-1.440795E-01
-1.457912E-01
-1.625971E-01
-1.631263E-01
-1.819008E-01
-1.848651E-01
-1.771310E-01
-1.691585E-01
-1.413456E-01
-9.180209E-02
-5.736218E-02
-9.906718E-02
-1.140071E-01
-4.571468E-02
-2.140406E-02
-1.165531E-01
-1.052689E-01
-1.378298E-01
-1.180814E-01
-1.373829E-01
-1.470587E-01
-1.518135E-01
-1.440795E-01
-1.413456E-01
-1.127288E-01
-7.878296E-02
-5.185687E-02
-2.431062E-02
-8.441852E-02
-1.028627E-01
2.488774E-02
-9.125341E-02
-5.736218E-02
-9.180209E-02
-9.157876E-02
-9.906718E-02
-1.140071E-01
-1.030429E-01
-1.165531E-01
-1.127288E-01
-9.016302E-02
-3.883773E-02
-1.880531E-02
2.074424E-02
-4.532900E-02
-6.658526E-02
6.066249E-02
4.563198E-02
-6.497092E-02
-2.431062E-02
-5.185687E-02
-7.878296E-02
-4.571468E-02
-8.441852E-02
-1.028627E-01
-5.717881E-02
-9.125341E-02
-9.016302E-02
-6.486646E-02
-2.003243E-02
2.167593E-02
5.379580E-02
-3.864018E-02
-5.399317E-02
1.100930E-01
9.043252E-02
-5.071624E-02
2.074424E-02
-1.880531E-02
-3.883773E-02
-2.140406E-02
-4.532900E-02
-6.658526E-02
-6.497092E-02
-6.486646E-02
-5.223564E-02
1.692630E-02
5.472749E-02
3.860222E-02
9.859634E-02
-1.334362E-02
-2.604810E-02
1.191187E-01
1.553799E-01
-2.639489E-02
5.379580E-02
4.563198E-02
2.167593E-02
-2.003243E-02
2.488774E-02
-3.864018E-02
-5.399317E-02
-5.071624E-02
-5.223564E-02
-3.123143E-02
4.222286E-02
9.815640E-02
7.551875E-02
1.426851E-01
1.516415E-02
-1.270448E-02
1.630573E-01
1.884315E-01
-1.954088E-02
9.859634E-02
5.472749E-02
9.043252E-02
3.860222E-02
1.692630E-02
6.066249E-02
-1.334362E-02
-2.604810E-02
-2.639489E-02
-3.123143E-02
-2.098341E-02
4.046072E-02
7.913939E-02
1.020214E-01
1.413134E-01
1.784598E-01
2.569563E-02
1.053148E-02
2.308516E-01
-5.850480E-03
1.426851E-01
9.815640E-02
1.191187E-01
7.551875E-02
4.222286E-02
1.100930E-01
1.516415E-02
-1.270448E-02
-1.954088E-02
-2.098341E-02
-9.292872E-03
7.127642E-02
1.118341E-01
1.386936E-01
1.666100E-01
2.198963E-01
4.910793E-02
2.422188E-02
2.639032E-01
2.469140E-01
6.343771E-03
1.784598E-01
1.413134E-01
1.020214E-01
1.630573E-01
7.913939E-02
4.046072E-02
1.553799E-01
2.569563E-02
1.053148E-02
-5.850480E-03
-9.292872E-03
-3.442392E-03
6.939215E-02
1.057333E-01
1.448857E-01
2.031782E-01
2.451929E-01
4.763418E-02
2.003418E-02
3.064681E-01
2.851789E-01
8.877108E-03
2.198963E-01
1.666100E-01
1.386936E-01
1.884315E-01
1.118341E-01
7.127642E-02
4.910793E-02
2.422188E-02
6.343771E-03
-3.442392E-03
2.533337E-03
9.321497E-02
1.194237E-01
1.783344E-01
2.389530E-01
2.087105E-01
2.874511E-01
6.395740E-02
3.354525E-02
3.116815E-01
3.442834E-01
1.522088E-02
2.451929E-01
2.469140E-01
2.031782E-01
1.448857E-01
2.308516E-01
1.057333E-01
6.939215E-02
4.763418E-02
2.003418E-02
8.877108E-03
2.533337E-03
2.533337E-03
8.925397E-02
1.445728E-01
1.920248E-01
2.731715E-01
2.386076E-01
3.210098E-01
5.405618E-02
2.619862E-02
3.470053E-01
3.695800E-01
8.877108E-03
2.874511E-01
2.389530E-01
2.851789E-01
2.087105E-01
1.783344E-01
2.639032E-01
1.194237E-01
9.321497E-02
6.395740E-02
3.354525E-02
1.522088E-02
2.533337E-03
-3.442392E-03
1.096227E-01
1.776243E-01
1.387327E-01
2.306490E-01
2.672939E-01
3.129700E-01
3.540614E-01
5.405618E-02
3.354525E-02
4.016705E-01
6.343771E-03
3.210098E-01
2.731715E-01
3.116815E-01
2.386076E-01
1.920248E-01
3.064681E-01
1.445728E-01
8.925397E-02
5.405618E-02
2.619862E-02
8.877108E-03
-3.442392E-03
-9.292872E-03
1.096227E-01
1.982869E-01
1.557105E-01
2.519715E-01
2.951100E-01
3.266605E-01
3.855712E-01
6.395740E-02
2.003418E-02
4.269670E-01
4.106055E-01
-5.850480E-03
3.540614E-01
3.129700E-01
2.672939E-01
3.470053E-01
2.306490E-01
1.776243E-01
3.442834E-01
1.387327E-01
1.096227E-01
5.405618E-02
3.354525E-02
6.343771E-03
-9.292872E-03
-2.098341E-02
8.925397E-02
1.387327E-01
1.822132E-01
2.340098E-01
2.877462E-01
3.537485E-01
3.992616E-01
4.763418E-02
2.422188E-02
4.561863E-01
4.365093E-01
-1.954088E-02
3.855712E-01
3.266605E-01
2.951100E-01
3.695800E-01
2.519715E-01
1.982869E-01
1.557105E-01
1.096227E-01
6.395740E-02
2.003418E-02
-5.850480E-03
-2.098341E-02
-3.123143E-02
9.321497E-02
1.445728E-01
1.982869E-01
2.340098E-01
3.125927E-01
3.868000E-01
3.470445E-01
4.325441E-01
4.910793E-02
1.053148E-02
4.567936E-01
4.807729E-01
-2.639489E-02
3.992616E-01
4.106055E-01
3.537485E-01
2.877462E-01
4.016705E-01
2.340098E-01
1.822132E-01
1.387327E-01
8.925397E-02
4.763418E-02
2.422188E-02
-1.954088E-02
-3.123143E-02
-5.223564E-02
6.939215E-02
1.194237E-01
1.776243E-01
2.519715E-01
3.125927E-01
4.065987E-01
3.653707E-01
4.504637E-01
2.569563E-02
-1.270448E-02
4.781249E-01
4.944634E-01
-5.071624E-02
4.325441E-01
3.868000E-01
4.365093E-01
3.470445E-01
3.125927E-01
4.269670E-01
2.340098E-01
1.982869E-01
1.445728E-01
9.321497E-02
4.910793E-02
1.053148E-02
-2.639489E-02
-5.223564E-02
-6.486646E-02
7.127642E-02
1.057333E-01
1.920248E-01
2.877462E-01
2.306490E-01
3.470445E-01
3.918733E-01
4.369798E-01
4.757603E-01
1.516415E-02
-2.604810E-02
5.113386E-01
-6.497092E-02
4.504637E-01
4.065987E-01
4.567936E-01
3.653707E-01
3.125927E-01
4.561863E-01
2.519715E-01
1.776243E-01
1.194237E-01
6.939215E-02
2.569563E-02
-1.270448E-02
-5.071624E-02
-6.486646E-02
-9.016302E-02
4.046072E-02
1.118341E-01
1.783344E-01
2.951100E-01
2.386076E-01
3.537485E-01
4.065987E-01
4.369798E-01
4.925463E-01
-1.334362E-02
-5.399317E-02
5.250290E-01
5.117861E-01
-9.125341E-02
4.757603E-01
4.369798E-01
3.918733E-01
4.781249E-01
3.470445E-01
2.877462E-01
4.807729E-01
2.306490E-01
1.920248E-01
1.057333E-01
7.127642E-02
1.516415E-02
-2.604810E-02
-6.497092E-02
-9.016302E-02
-1.127288E-01
4.222286E-02
1.448857E-01
7.913939E-02
2.087105E-01
2.672939E-01
3.266605E-01
3.868000E-01
4.504637E-01
4.925463E-01
-3.864018E-02
-6.658526E-02
5.364543E-01
5.213852E-01
-1.165531E-01
4.925463E-01
4.369798E-01
4.065987E-01
4.944634E-01
3.537485E-01
2.951100E-01
2.386076E-01
1.783344E-01
1.118341E-01
4.046072E-02
-1.334362E-02
-5.399317E-02
-9.125341E-02
-1.127288E-01
-1.413456E-01
1.692630E-02
1.386936E-01
7.551875E-02
2.031782E-01
2.731715E-01
3.129700E-01
3.992616E-01
4.757603E-01
4.325441E-01
5.117861E-01
-4.532900E-02
-1.028627E-01
5.323629E-01
5.440691E-01
-1.440795E-01
4.925463E-01
5.117861E-01
4.504637E-01
3.868000E-01
5.113386E-01
3.266605E-01
2.672939E-01
2.087105E-01
1.448857E-01
7.913939E-02
4.222286E-02
-3.864018E-02
-6.658526E-02
-1.165531E-01
-1.413456E-01
-1.691585E-01
3.860222E-02
-2.003243E-02
1.020214E-01
1.666100E-01
2.389530E-01
3.210098E-01
3.855712E-01
4.781249E-01
4.365093E-01
5.113386E-01
-8.441852E-02
-1.140071E-01
5.364543E-01
5.440691E-01
-1.771310E-01
5.117861E-01
4.757603E-01
5.213852E-01
4.325441E-01
3.992616E-01
5.250290E-01
3.129700E-01
2.731715E-01
2.031782E-01
1.386936E-01
7.551875E-02
1.692630E-02
-4.532900E-02
-1.028627E-01
-1.440795E-01
-1.691585E-01
-1.943099E-01
2.167593E-02
-3.883773E-02
9.815640E-02
1.413134E-01
2.451929E-01
3.540614E-01
2.874511E-01
4.106055E-01
4.567936E-01
4.944634E-01
5.250290E-01
-9.906718E-02
-1.470587E-01
-1.955912E-01
5.113386E-01
4.781249E-01
5.323629E-01
4.365093E-01
3.855712E-01
5.364543E-01
3.210098E-01
2.389530E-01
1.666100E-01
1.020214E-01
3.860222E-02
-2.003243E-02
-8.441852E-02
-1.140071E-01
-1.771310E-01
-1.943099E-01
-2.305261E-01
5.472749E-02
-1.880531E-02
-7.878296E-02
1.426851E-01
2.198963E-01
3.470053E-01
2.851789E-01
4.016705E-01
4.561863E-01
4.807729E-01
-1.373829E-01
-1.819008E-01
-2.351245E-01
5.250290E-01
4.944634E-01
4.567936E-01
5.364543E-01
4.106055E-01
3.540614E-01
5.440691E-01
2.874511E-01
2.451929E-01
1.413134E-01
9.815640E-02
2.167593E-02
-3.883773E-02
-9.906718E-02
-1.470587E-01
-1.955912E-01
-2.305261E-01
-2.528805E-01
5.379580E-02
-5.185687E-02
-9.180209E-02
1.784598E-01
9.859634E-02
2.469140E-01
3.116815E-01
3.695800E-01
4.269670E-01
-1.631263E-01
-2.104563E-01
-2.585710E-01
4.807729E-01
4.561863E-01
5.440691E-01
4.016705E-01
3.470053E-01
2.851789E-01
2.198963E-01
1.426851E-01
5.472749E-02
-1.880531E-02
-7.878296E-02
-1.373829E-01
-1.819008E-01
-2.351245E-01
-2.528805E-01
-2.886553E-01
2.074424E-02
-5.736218E-02
-1.378298E-01
1.630573E-01
9.043252E-02
2.308516E-01
3.064681E-01
3.442834E-01
-2.013577E-01
-2.475933E-01
-2.924527E-01
4.269670E-01
3.695800E-01
3.116815E-01
2.469140E-01
1.784598E-01
9.859634E-02
5.379580E-02
-5.185687E-02
-9.180209E-02
-1.631263E-01
-2.104563E-01
-2.585710E-01
-2.886553E-01
-3.160763E-01
4.563198E-02
-2.431062E-02
-1.052689E-01
-1.457912E-01
1.191187E-01
1.884315E-01
2.639032E-01
-2.371324E-01
-2.677845E-01
-3.230941E-01
3.442834E-01
3.064681E-01
2.308516E-01
1.630573E-01
9.043252E-02
2.074424E-02
-5.736218E-02
-1.378298E-01
-2.013577E-01
-2.475933E-01
-2.924527E-01
-3.160763E-01
-3.500349E-01
2.488774E-02
-4.571468E-02
-1.180814E-01
-1.815659E-01
1.100930E-01
1.553799E-01
-2.486766E-01
-3.094037E-01
-3.532552E-01
2.639032E-01
1.884315E-01
1.191187E-01
4.563198E-02
-2.431062E-02
-1.052689E-01
-1.457912E-01
-2.371324E-01
-2.677845E-01
-3.230941E-01
-3.500349E-01
-3.787098E-01
6.066249E-02
-2.140406E-02
-9.157876E-02
-1.625971E-01
-2.233800E-01
-2.931078E-01
-3.231828E-01
-3.863067E-01
1.553799E-01
1.100930E-01
2.488774E-02
-4.571468E-02
-1.180814E-01
-1.815659E-01
-2.486766E-01
-3.094037E-01
-3.532552E-01
-3.787098E-01
-4.029992E-01
-5.717881E-02
-1.030429E-01
-1.848651E-01
-2.475270E-01
-3.086184E-01
-3.562344E-01
-4.021322E-01
6.066249E-02
-2.140406E-02
-9.157876E-02
-1.625971E-01
-2.233800E-01
-2.931078E-01
-3.231828E-01
-3.863067E-01
-4.029992E-01
-4.338737E-01
-1.518135E-01
-2.279810E-01
-2.883342E-01
-3.460722E-01
-3.884418E-01
-4.363238E-01
-5.717881E-02
-1.030429E-01
-1.848651E-01
-2.475270E-01
-3.086184E-01
-3.562344E-01
-4.021322E-01
-4.338737E-01
-4.513728E-01
-2.610326E-01
-3.004914E-01
-3.664739E-01
-4.116556E-01
-4.521711E-01
-1.518135E-01
-2.279810E-01
-2.883342E-01
-3.460722E-01
-3.884418E-01
-4.363238E-01
-4.513728E-01
-4.766693E-01
-3.411773E-01
-3.998499E-01
-4.411934E-01
-4.768609E-01
-2.610326E-01
-3.004914E-01
-3.664739E-01
-4.116556E-01
-4.521711E-01
-4.766693E-01
-4.943668E-01
-4.251465E-01
-4.521928E-01
-4.922903E-01
-3.411773E-01
-3.998499E-01
-4.411934E-01
-4.768609E-01
-4.943668E-01
-5.131134E-01
-4.785999E-01
-5.108453E-01
-4.251465E-01
-4.521928E-01
-4.922903E-01
-5.131134E-01
-5.268849E-01
-5.245357E-01
-4.785999E-01
-5.108453E-01
-5.268849E-01
-5.350519E-01
-5.245357E-01
-5.350519E-01
-5.431601E-01
-5.431601E-01
