# vtk DataFile Version 2.0
Grille
ASCII
DATASET POLYDATA
POINTS 481 float
0.000000E+00 8.750000E-01 -9.228647E-01
6.250000E-02 8.750000E-01 -9.051321E-01
1.250000E-01 8.750000E-01 -8.526158E-01
1.250000E-01 9.375000E-01 -9.051321E-01
1.250000E-01 1.000000E+00 -9.228647E-01
6.250000E-02 1.000000E+00 -9.797080E-01
0.000000E+00 1.000000E+00 -9.989016E-01
0.000000E+00 9.375000E-01 -9.797080E-01
3.750000E-02 9.125000E-01 -9.547341E-01
8.125000E-02 9.187500E-01 -9.352196E-01
8.750000E-02 9.625000E-01 -9.547341E-01
4.375000E-02 9.562500E-01 -9.801498E-01
1.875000E-01 8.750000E-01 -7.673340E-01
2.500000E-01 8.750000E-01 -6.525639E-01
2.500000E-01 9.375000E-01 -6.927581E-01
2.500000E-01 1.000000E+00 -7.063301E-01
1.875000E-01 1.000000E+00 -8.305563E-01
1.625000E-01 9.125000E-01 -8.388160E-01
2.062500E-01 9.187500E-01 -7.706393E-01
2.125000E-01 9.625000E-01 -7.790168E-01
1.687500E-01 9.562500E-01 -8.536595E-01
0.000000E+00 7.500000E-01 -7.063301E-01
6.250000E-02 7.500000E-01 -6.927581E-01
1.250000E-01 7.500000E-01 -6.525639E-01
1.250000E-01 8.125000E-01 -7.673340E-01
0.000000E+00 8.125000E-01 -8.305563E-01
3.750000E-02 7.875000E-01 -7.790168E-01
8.125000E-02 7.937500E-01 -7.706393E-01
8.750000E-02 8.375000E-01 -8.388160E-01
4.375000E-02 8.312500E-01 -8.536595E-01
1.875000E-01 7.500000E-01 -5.872920E-01
2.500000E-01 7.500000E-01 -4.994508E-01
2.500000E-01 8.125000E-01 -5.872920E-01
1.625000E-01 7.875000E-01 -6.844333E-01
2.062500E-01 7.937500E-01 -6.350219E-01
2.125000E-01 8.375000E-01 -6.844333E-01
1.687500E-01 8.312500E-01 -7.434930E-01
3.125000E-01 8.750000E-01 -5.127162E-01
3.750000E-01 8.750000E-01 -3.531650E-01
3.750000E-01 9.375000E-01 -3.749180E-01
3.750000E-01 1.000000E+00 -3.822631E-01
3.125000E-01 1.000000E+00 -5.549600E-01
2.875000E-01 9.125000E-01 -5.951957E-01
3.312500E-01 9.187500E-01 -4.887362E-01
3.375000E-01 9.625000E-01 -4.847013E-01
2.937500E-01 9.562500E-01 -5.972073E-01
4.375000E-01 8.750000E-01 -1.800420E-01
5.000000E-01 8.750000E-01 -5.650917E-17
5.000000E-01 9.375000E-01 -5.998981E-17
5.000000E-01 1.000000E+00 -6.116508E-17
4.375000E-01 1.000000E+00 -1.948760E-01
4.125000E-01 9.125000E-01 -2.609623E-01
4.562500E-01 9.187500E-01 -1.324274E-01
4.625000E-01 9.625000E-01 -1.165945E-01
4.187500E-01 9.562500E-01 -2.498357E-01
3.125000E-01 7.500000E-01 -3.924160E-01
3.750000E-01 7.500000E-01 -2.703008E-01
3.750000E-01 8.125000E-01 -3.178401E-01
2.875000E-01 7.875000E-01 -4.856509E-01
3.312500E-01 7.937500E-01 -4.027282E-01
3.375000E-01 8.375000E-01 -4.258518E-01
2.937500E-01 8.312500E-01 -5.201365E-01
4.375000E-01 7.500000E-01 -1.377982E-01
5.000000E-01 7.500000E-01 -4.325024E-17
5.000000E-01 8.125000E-01 -5.085691E-17
4.125000E-01 7.875000E-01 -2.129326E-01
4.562500E-01 7.937500E-01 -1.091228E-01
4.625000E-01 8.375000E-01 -1.024383E-01
4.187500E-01 8.312500E-01 -2.175939E-01
0.000000E+00 6.250000E-01 -3.822631E-01
6.250000E-02 6.250000E-01 -3.749180E-01
1.250000E-01 6.250000E-01 -3.531650E-01
1.250000E-01 6.875000E-01 -5.127162E-01
0.000000E+00 6.875000E-01 -5.549600E-01
3.750000E-02 6.625000E-01 -4.847013E-01
8.125000E-02 6.687500E-01 -4.887362E-01
8.750000E-02 7.125000E-01 -5.951957E-01
4.375000E-02 7.062500E-01 -5.972073E-01
1.875000E-01 6.250000E-01 -3.178401E-01
2.500000E-01 6.250000E-01 -2.703008E-01
2.500000E-01 6.875000E-01 -3.924160E-01
1.625000E-01 6.625000E-01 -4.258518E-01
2.062500E-01 6.687500E-01 -4.027282E-01
2.125000E-01 7.125000E-01 -4.856509E-01
1.687500E-01 7.062500E-01 -5.201365E-01
0.000000E+00 5.000000E-01 6.116508E-17
6.250000E-02 5.000000E-01 5.998981E-17
1.250000E-01 5.000000E-01 5.650917E-17
1.250000E-01 5.625000E-01 -1.800420E-01
0.000000E+00 5.625000E-01 -1.948760E-01
3.750000E-02 5.375000E-01 -1.165945E-01
8.125000E-02 5.437500E-01 -1.324274E-01
8.750000E-02 5.875000E-01 -2.609623E-01
4.375000E-02 5.812500E-01 -2.498357E-01
1.875000E-01 5.000000E-01 5.085691E-17
2.500000E-01 5.000000E-01 4.325024E-17
2.500000E-01 5.625000E-01 -1.377982E-01
1.625000E-01 5.375000E-01 -1.024383E-01
2.062500E-01 5.437500E-01 -1.091228E-01
2.125000E-01 5.875000E-01 -2.129326E-01
1.687500E-01 5.812500E-01 -2.175939E-01
3.125000E-01 6.250000E-01 -2.123740E-01
3.750000E-01 6.250000E-01 -1.462857E-01
3.750000E-01 6.875000E-01 -2.123740E-01
2.875000E-01 6.625000E-01 -3.021702E-01
3.312500E-01 6.687500E-01 -2.554085E-01
3.375000E-01 7.125000E-01 -3.021702E-01
2.937500E-01 7.062500E-01 -3.638796E-01
4.375000E-01 6.250000E-01 -7.457583E-02
5.000000E-01 6.250000E-01 -2.340686E-17
5.000000E-01 6.875000E-01 -3.398150E-17
4.125000E-01 6.625000E-01 -1.324859E-01
4.562500E-01 6.687500E-01 -6.920520E-02
4.625000E-01 7.125000E-01 -7.268676E-02
4.187500E-01 7.062500E-01 -1.522254E-01
3.125000E-01 5.000000E-01 3.398150E-17
3.750000E-01 5.000000E-01 2.340686E-17
3.750000E-01 5.625000E-01 -7.457583E-02
2.875000E-01 5.375000E-01 -7.268676E-02
3.312500E-01 5.437500E-01 -6.920520E-02
3.375000E-01 5.875000E-01 -1.324859E-01
2.937500E-01 5.812500E-01 -1.522254E-01
4.375000E-01 5.000000E-01 1.193272E-17
5.000000E-01 5.000000E-01 3.745281E-33
5.000000E-01 5.625000E-01 -1.193272E-17
4.125000E-01 5.375000E-01 -3.186936E-02
4.562500E-01 5.437500E-01 -1.875176E-02
4.625000E-01 5.875000E-01 -3.186936E-02
4.187500E-01 5.812500E-01 -6.368197E-02
5.625000E-01 8.750000E-01 1.800420E-01
6.250000E-01 8.750000E-01 3.531650E-01
6.250000E-01 9.375000E-01 3.749180E-01
6.250000E-01 1.000000E+00 3.822631E-01
5.625000E-01 1.000000E+00 1.948760E-01
5.375000E-01 9.125000E-01 1.130002E-01
5.812500E-01 9.187500E-01 2.440423E-01
5.875000E-01 9.625000E-01 2.692629E-01
5.437500E-01 9.562500E-01 1.355711E-01
6.875000E-01 8.750000E-01 5.127162E-01
7.500000E-01 8.750000E-01 6.525639E-01
7.500000E-01 9.375000E-01 6.927581E-01
7.500000E-01 1.000000E+00 7.063301E-01
6.875000E-01 1.000000E+00 5.549600E-01
6.625000E-01 9.125000E-01 4.697595E-01
7.062500E-01 9.187500E-01 5.833587E-01
7.125000E-01 9.625000E-01 6.141274E-01
6.687500E-01 9.562500E-01 5.003385E-01
5.625000E-01 7.500000E-01 1.377982E-01
6.250000E-01 7.500000E-01 2.703008E-01
6.250000E-01 8.125000E-01 3.178401E-01
5.375000E-01 7.875000E-01 9.220272E-02
5.812500E-01 7.937500E-01 2.010956E-01
5.875000E-01 8.375000E-01 2.365706E-01
5.437500E-01 8.312500E-01 1.180754E-01
6.875000E-01 7.500000E-01 3.924160E-01
7.500000E-01 7.500000E-01 4.994508E-01
7.500000E-01 8.125000E-01 5.872920E-01
6.625000E-01 7.875000E-01 3.833010E-01
7.062500E-01 7.937500E-01 4.806990E-01
7.125000E-01 8.375000E-01 5.395637E-01
6.687500E-01 8.312500E-01 4.357688E-01
8.125000E-01 8.750000E-01 7.673340E-01
8.750000E-01 8.750000E-01 8.526158E-01
8.750000E-01 9.375000E-01 9.051321E-01
8.750000E-01 1.000000E+00 9.228647E-01
8.125000E-01 1.000000E+00 8.305563E-01
7.875000E-01 9.125000E-01 7.550022E-01
8.312500E-01 9.187500E-01 8.338641E-01
8.375000E-01 9.625000E-01 8.654965E-01
7.937500E-01 9.562500E-01 7.889339E-01
9.375000E-01 8.750000E-01 9.051321E-01
1.000000E+00 8.750000E-01 9.228647E-01
1.000000E+00 9.375000E-01 9.797080E-01
1.000000E+00 1.000000E+00 9.989016E-01
9.375000E-01 1.000000E+00 9.797080E-01
9.125000E-01 9.125000E-01 9.253026E-01
9.562500E-01 9.187500E-01 9.574212E-01
9.625000E-01 9.625000E-01 9.851017E-01
9.187500E-01 9.562500E-01 9.574212E-01
8.125000E-01 7.500000E-01 5.872920E-01
8.750000E-01 7.500000E-01 6.525639E-01
8.750000E-01 8.125000E-01 7.673340E-01
7.875000E-01 7.875000E-01 6.160453E-01
8.312500E-01 7.937500E-01 6.871204E-01
8.375000E-01 8.375000E-01 7.604131E-01
7.937500E-01 8.312500E-01 6.871204E-01
9.375000E-01 7.500000E-01 6.927581E-01
1.000000E+00 7.500000E-01 7.063301E-01
1.000000E+00 8.125000E-01 8.305563E-01
9.125000E-01 7.875000E-01 7.550022E-01
9.562500E-01 7.937500E-01 7.889339E-01
9.625000E-01 8.375000E-01 8.654965E-01
9.187500E-01 8.312500E-01 8.338641E-01
5.625000E-01 6.250000E-01 7.457583E-02
6.250000E-01 6.250000E-01 1.462857E-01
6.250000E-01 6.875000E-01 2.123740E-01
5.375000E-01 6.625000E-01 5.736818E-02
5.812500E-01 6.687500E-01 1.275340E-01
5.875000E-01 7.125000E-01 1.678626E-01
5.437500E-01 7.062500E-01 8.260378E-02
6.875000E-01 6.250000E-01 2.123740E-01
7.500000E-01 6.250000E-01 2.703008E-01
7.500000E-01 6.875000E-01 3.924160E-01
6.625000E-01 6.625000E-01 2.384885E-01
7.062500E-01 6.687500E-01 3.048573E-01
7.125000E-01 7.125000E-01 3.828563E-01
6.687500E-01 7.062500E-01 3.048573E-01
5.625000E-01 5.000000E-01 -1.193272E-17
6.250000E-01 5.000000E-01 -2.340686E-17
6.250000E-01 5.625000E-01 7.457583E-02
5.375000E-01 5.375000E-01 1.379986E-02
5.812500E-01 5.437500E-01 3.455646E-02
5.875000E-01 5.875000E-01 7.359899E-02
5.437500E-01 5.812500E-01 3.455646E-02
6.875000E-01 5.000000E-01 -3.398150E-17
7.500000E-01 5.000000E-01 -4.325024E-17
7.500000E-01 5.625000E-01 1.377982E-01
6.625000E-01 5.375000E-01 5.736818E-02
7.062500E-01 5.437500E-01 8.260378E-02
7.125000E-01 5.875000E-01 1.678626E-01
6.687500E-01 5.812500E-01 1.275340E-01
8.125000E-01 6.250000E-01 3.178401E-01
8.750000E-01 6.250000E-01 3.531650E-01
8.750000E-01 6.875000E-01 5.127162E-01
7.875000E-01 6.625000E-01 3.833010E-01
8.312500E-01 6.687500E-01 4.357688E-01
8.375000E-01 7.125000E-01 5.395637E-01
7.937500E-01 7.062500E-01 4.806990E-01
9.375000E-01 6.250000E-01 3.749180E-01
1.000000E+00 6.250000E-01 3.822631E-01
1.000000E+00 6.875000E-01 5.549600E-01
9.125000E-01 6.625000E-01 4.697595E-01
9.562500E-01 6.687500E-01 5.003385E-01
9.625000E-01 7.125000E-01 6.141274E-01
9.187500E-01 7.062500E-01 5.833587E-01
8.125000E-01 5.000000E-01 -5.085691E-17
8.750000E-01 5.000000E-01 -5.650917E-17
8.750000E-01 5.625000E-01 1.800420E-01
7.875000E-01 5.375000E-01 9.220272E-02
8.312500E-01 5.437500E-01 1.180754E-01
8.375000E-01 5.875000E-01 2.365706E-01
7.937500E-01 5.812500E-01 2.010956E-01
9.375000E-01 5.000000E-01 -5.998981E-17
1.000000E+00 5.000000E-01 -6.116508E-17
1.000000E+00 5.625000E-01 1.948760E-01
9.125000E-01 5.375000E-01 1.130002E-01
9.562500E-01 5.437500E-01 1.355711E-01
9.625000E-01 5.875000E-01 2.692629E-01
9.187500E-01 5.812500E-01 2.440423E-01
0.000000E+00 3.750000E-01 3.822631E-01
6.250000E-02 3.750000E-01 3.749180E-01
[...]
CELL_DATA 896
SCALARS sol float 1
LOOKUP_TABLE default
-9.275770E-01
-9.316953E-01
-9.524356E-01
-8.938855E-01
-9.567012E-01
-8.976558E-01
-9.715306E-01
-8.690268E-01
-8.658692E-01
-9.567012E-01
-8.976558E-01
-8.655213E-01
-9.862531E-01
-8.210775E-01
-8.210383E-01
-9.715306E-01
-9.316953E-01
-8.655213E-01
-8.195886E-01
-9.862531E-01
-8.011052E-01
-7.719677E-01
-7.922631E-01
-9.524356E-01
-9.275770E-01
-8.195886E-01
-8.658692E-01
-7.878143E-01
-7.474714E-01
-7.260350E-01
-7.301791E-01
-8.938855E-01
-7.922631E-01
-7.878143E-01
-8.210383E-01
-7.317534E-01
-7.053205E-01
-6.654318E-01
-7.014437E-01
-8.690268E-01
-7.301791E-01
-7.317534E-01
-8.011052E-01
-6.876494E-01
-6.468392E-01
-6.194991E-01
-6.283870E-01
-6.414297E-01
-8.210775E-01
-7.053205E-01
-7.014437E-01
-6.876494E-01
-7.474714E-01
-6.355824E-01
-5.868253E-01
-5.456229E-01
-5.603797E-01
-5.866641E-01
-7.719677E-01
-6.468392E-01
-6.414297E-01
-6.355824E-01
-7.260350E-01
-5.739216E-01
-5.322160E-01
-5.618055E-01
-5.235483E-01
-4.739748E-01
-5.310265E-01
-5.868253E-01
-6.283870E-01
-5.866641E-01
-5.739216E-01
-6.654318E-01
-5.241312E-01
-4.515391E-01
-4.862348E-01
-4.494518E-01
-4.139608E-01
-4.695052E-01
-5.322160E-01
-5.618055E-01
-5.603797E-01
-5.310265E-01
-5.241312E-01
-6.194991E-01
-4.591726E-01
-4.056064E-01
-4.305777E-01
-4.495722E-01
-3.356723E-01
-4.269317E-01
-4.515391E-01
-4.862348E-01
-5.235483E-01
-4.695052E-01
-4.591726E-01
-5.456229E-01
-4.185821E-01
-3.296818E-01
-3.656190E-01
-3.821400E-01
-2.756583E-01
-2.952387E-01
-3.551483E-01
-4.056064E-01
-4.305777E-01
-4.495722E-01
-4.494518E-01
-4.269317E-01
-4.185821E-01
-4.739748E-01
-3.528219E-01
-2.647231E-01
-2.961997E-01
-3.302897E-01
-1.871021E-01
-2.144085E-01
-3.216290E-01
-3.296818E-01
-3.656190E-01
-3.821400E-01
-4.139608E-01
-3.551483E-01
-3.528219E-01
-3.071528E-01
-2.502670E-01
-1.911439E-01
-2.494556E-01
-2.670245E-01
-1.662859E-01
-1.038235E-01
-2.616150E-01
-2.647231E-01
-2.952387E-01
-2.961997E-01
-3.302897E-01
-3.356723E-01
-3.216290E-01
-3.071528E-01
-2.566509E-01
-1.666914E-01
-1.041565E-01
-1.798831E-01
-2.070105E-01
-8.300729E-02
-3.886482E-02
-2.116334E-01
-1.911439E-01
-2.502670E-01
-2.144085E-01
-2.494556E-01
-2.670245E-01
-2.756583E-01
-2.616150E-01
-2.566509E-01
-2.046894E-01
-1.430516E-01
-9.416008E-02
-4.414247E-02
-1.532845E-01
-1.867748E-01
4.519038E-02
-1.656951E-01
-1.041565E-01
-1.666914E-01
-1.662859E-01
-1.798831E-01
-2.070105E-01
-1.871021E-01
-2.116334E-01
-2.046894E-01
-1.637152E-01
-7.052035E-02
-3.414609E-02
3.766674E-02
-8.230698E-02
-1.209034E-01
1.101491E-01
8.285712E-02
-1.179722E-01
-4.414247E-02
-9.416008E-02
-1.430516E-01
-8.300729E-02
-1.532845E-01
-1.867748E-01
-1.038235E-01
-1.656951E-01
-1.637152E-01
-1.177825E-01
-3.637426E-02
3.935847E-02
9.768073E-02
-7.016164E-02
-9.803912E-02
1.999033E-01
1.642045E-01
-9.208897E-02
3.766674E-02
-3.414609E-02
-7.052035E-02
-3.886482E-02
-8.230698E-02
-1.209034E-01
-1.179722E-01
-1.177825E-01
-9.484785E-02
3.073424E-02
9.937246E-02
7.009271E-02
1.790282E-01
-2.422892E-02
-4.729732E-02
2.162921E-01
2.821340E-01
-4.792701E-02
9.768073E-02
8.285712E-02
3.935847E-02
-3.637426E-02
4.519038E-02
-7.016164E-02
-9.803912E-02
-9.208897E-02
-9.484785E-02
-5.670905E-02
7.666696E-02
1.782293E-01
1.371246E-01
2.590831E-01
2.753459E-02
-2.306840E-02
2.960744E-01
3.421480E-01
-3.548173E-02
1.790282E-01
9.937246E-02
1.642045E-01
7.009271E-02
3.073424E-02
1.101491E-01
-2.422892E-02
-4.729732E-02
-4.792701E-02
-5.670905E-02
-3.810103E-02
7.346731E-02
1.436988E-01
1.852472E-01
2.565925E-01
3.240418E-01
4.665732E-02
1.912273E-02
4.191732E-01
-1.062312E-02
2.590831E-01
1.782293E-01
2.162921E-01
1.371246E-01
7.666696E-02
1.999033E-01
2.753459E-02
-2.306840E-02
-3.548173E-02
-3.810103E-02
-1.687371E-02
1.294215E-01
2.030649E-01
2.518354E-01
3.025252E-01
3.992808E-01
8.916865E-02
4.398134E-02
4.791872E-01
4.483387E-01
1.151882E-02
3.240418E-01
2.565925E-01
1.852472E-01
2.960744E-01
1.436988E-01
7.346731E-02
2.821340E-01
4.665732E-02
1.912273E-02
-1.062312E-02
-1.687371E-02
-6.250587E-03
1.260001E-01
1.919872E-01
2.630789E-01
3.689247E-01
4.452136E-01
8.649267E-02
3.637743E-02
5.564753E-01
5.178189E-01
1.611878E-02
3.992808E-01
3.025252E-01
2.518354E-01
3.421480E-01
2.030649E-01
1.294215E-01
8.916865E-02
4.398134E-02
1.151882E-02
-6.250587E-03
4.599955E-03
1.692568E-01
2.168458E-01
3.238140E-01
4.338833E-01
3.789700E-01
5.219448E-01
1.161319E-01
6.091043E-02
5.659415E-01
6.251391E-01
2.763760E-02
4.452136E-01
4.483387E-01
3.689247E-01
2.630789E-01
4.191732E-01
1.919872E-01
1.260001E-01
8.649267E-02
3.637743E-02
1.611878E-02
4.599955E-03
4.599955E-03
1.620646E-01
2.625107E-01
3.486726E-01
4.960162E-01
4.332563E-01
5.828796E-01
9.815352E-02
4.757064E-02
6.300814E-01
6.710719E-01
1.611878E-02
5.219448E-01
4.338833E-01
5.178189E-01
3.789700E-01
3.238140E-01
4.791872E-01
2.168458E-01
1.692568E-01
1.161319E-01
6.091043E-02
2.763760E-02
4.599955E-03
-6.250587E-03
1.990494E-01
3.225247E-01
2.519066E-01
4.188053E-01
4.853438E-01
5.682812E-01
6.428936E-01
9.815352E-02
6.091043E-02
7.293407E-01
1.151882E-02
5.828796E-01
4.960162E-01
5.659415E-01
4.332563E-01
3.486726E-01
5.564753E-01
2.625107E-01
1.620646E-01
9.815352E-02
4.757064E-02
1.611878E-02
-6.250587E-03
-1.687371E-02
1.990494E-01
3.600432E-01
2.827343E-01
4.575219E-01
5.358516E-01
5.931399E-01
7.001081E-01
1.161319E-01
3.637743E-02
7.752734E-01
7.455647E-01
-1.062312E-02
6.428936E-01
5.682812E-01
4.853438E-01
6.300814E-01
4.188053E-01
3.225247E-01
6.251391E-01
2.519066E-01
1.990494E-01
9.815352E-02
6.091043E-02
1.151882E-02
-1.687371E-02
-3.810103E-02
1.620646E-01
2.519066E-01
3.308570E-01
4.249077E-01
5.224806E-01
6.423254E-01
7.249667E-01
8.649267E-02
4.398134E-02
8.283289E-01
7.926000E-01
-3.548173E-02
7.001081E-01
5.931399E-01
5.358516E-01
6.710719E-01
4.575219E-01
3.600432E-01
2.827343E-01
1.990494E-01
1.161319E-01
3.637743E-02
-1.062312E-02
-3.810103E-02
-5.670905E-02
1.692568E-01
2.625107E-01
3.600432E-01
4.249077E-01
5.675960E-01
7.023394E-01
6.301525E-01
7.854001E-01
8.916865E-02
1.912273E-02
8.294315E-01
8.729725E-01
-4.792701E-02
7.249667E-01
7.455647E-01
6.423254E-01
5.224806E-01
7.293407E-01
4.249077E-01
3.308570E-01
2.519066E-01
1.620646E-01
8.649267E-02
4.398134E-02
-3.548173E-02
-5.670905E-02
-9.484785E-02
1.260001E-01
2.168458E-01
3.225247E-01
4.575219E-01
5.675960E-01
7.382891E-01
6.634287E-01
8.179379E-01
4.665732E-02
-2.306840E-02
8.681642E-01
8.978311E-01
-9.208897E-02
7.854001E-01
7.023394E-01
7.926000E-01
6.301525E-01
5.675960E-01
7.752734E-01
4.249077E-01
3.600432E-01
2.625107E-01
1.692568E-01
8.916865E-02
1.912273E-02
-4.792701E-02
-9.484785E-02
-1.177825E-01
1.294215E-01
1.919872E-01
3.486726E-01
5.224806E-01
4.188053E-01
6.301525E-01
7.115513E-01
7.934543E-01
8.638707E-01
2.753459E-02
-4.729732E-02
9.284727E-01
-1.179722E-01
8.179379E-01
7.382891E-01
8.294315E-01
6.634287E-01
5.675960E-01
8.283289E-01
4.575219E-01
3.225247E-01
2.168458E-01
1.260001E-01
4.665732E-02
-2.306840E-02
-9.208897E-02
-1.177825E-01
-1.637152E-01
7.346731E-02
2.030649E-01
3.238140E-01
5.358516E-01
4.332563E-01
6.423254E-01
7.382891E-01
7.934543E-01
8.943502E-01
-2.422892E-02
-9.803912E-02
9.533313E-01
9.292853E-01
-1.656951E-01
8.638707E-01
7.934543E-01
7.115513E-01
8.681642E-01
6.301525E-01
5.224806E-01
8.729725E-01
4.188053E-01
3.486726E-01
1.919872E-01
1.294215E-01
2.753459E-02
-4.729732E-02
-1.179722E-01
-1.637152E-01
-2.046894E-01
7.666696E-02
2.630789E-01
1.436988E-01
3.789700E-01
4.853438E-01
5.931399E-01
7.023394E-01
8.179379E-01
8.943502E-01
-7.016164E-02
-1.209034E-01
9.740769E-01
9.467150E-01
-2.116334E-01
8.943502E-01
7.934543E-01
7.382891E-01
8.978311E-01
6.423254E-01
5.358516E-01
4.332563E-01
3.238140E-01
2.030649E-01
7.346731E-02
-2.422892E-02
-9.803912E-02
-1.656951E-01
-2.046894E-01
-2.566509E-01
3.073424E-02
2.518354E-01
1.371246E-01
3.689247E-01
4.960162E-01
5.682812E-01
7.249667E-01
8.638707E-01
7.854001E-01
9.292853E-01
-8.230698E-02
-1.867748E-01
9.666480E-01
9.879037E-01
-2.616150E-01
8.943502E-01
9.292853E-01
8.179379E-01
7.023394E-01
9.284727E-01
5.931399E-01
4.853438E-01
3.789700E-01
2.630789E-01
1.436988E-01
7.666696E-02
-7.016164E-02
-1.209034E-01
-2.116334E-01
-2.566509E-01
-3.071528E-01
7.009271E-02
-3.637426E-02
1.852472E-01
3.025252E-01
4.338833E-01
5.828796E-01
7.001081E-01
8.681642E-01
7.926000E-01
9.284727E-01
-1.532845E-01
-2.070105E-01
9.740769E-01
9.879037E-01
-3.216290E-01
9.292853E-01
8.638707E-01
9.467150E-01
7.854001E-01
7.249667E-01
9.533313E-01
5.682812E-01
4.960162E-01
3.689247E-01
2.518354E-01
1.371246E-01
3.073424E-02
-8.230698E-02
-1.867748E-01
-2.616150E-01
-3.071528E-01
-3.528219E-01
3.935847E-02
-7.052035E-02
1.782293E-01
2.565925E-01
4.452136E-01
6.428936E-01
5.219448E-01
7.455647E-01
8.294315E-01
8.978311E-01
9.533313E-01
-1.798831E-01
-2.670245E-01
-3.551483E-01
9.284727E-01
8.681642E-01
9.666480E-01
7.926000E-01
7.001081E-01
9.740769E-01
5.828796E-01
4.338833E-01
3.025252E-01
1.852472E-01
7.009271E-02
-3.637426E-02
-1.532845E-01
-2.070105E-01
-3.216290E-01
-3.528219E-01
-4.185821E-01
9.937246E-02
-3.414609E-02
-1.430516E-01
2.590831E-01
3.992808E-01
6.300814E-01
5.178189E-01
7.293407E-01
8.283289E-01
8.729725E-01
-2.494556E-01
-3.302897E-01
-4.269317E-01
9.533313E-01
8.978311E-01
8.294315E-01
9.740769E-01
7.455647E-01
6.428936E-01
9.879037E-01
5.219448E-01
4.452136E-01
2.565925E-01
1.782293E-01
3.935847E-02
-7.052035E-02
-1.798831E-01
-2.670245E-01
-3.551483E-01
-4.185821E-01
-4.591726E-01
9.768073E-02
-9.416008E-02
-1.666914E-01
3.240418E-01
1.790282E-01
4.483387E-01
5.659415E-01
6.710719E-01
7.752734E-01
-2.961997E-01
-3.821400E-01
-4.695052E-01
8.729725E-01
8.283289E-01
9.879037E-01
7.293407E-01
6.300814E-01
5.178189E-01
3.992808E-01
2.590831E-01
9.937246E-02
-3.414609E-02
-1.430516E-01
-2.494556E-01
-3.302897E-01
-4.269317E-01
-4.591726E-01
-5.241312E-01
3.766674E-02
-1.041565E-01
-2.502670E-01
2.960744E-01
1.642045E-01
4.191732E-01
5.564753E-01
6.251391E-01
-3.656190E-01
-4.495722E-01
-5.310265E-01
7.752734E-01
6.710719E-01
5.659415E-01
4.483387E-01
3.240418E-01
1.790282E-01
9.768073E-02
-9.416008E-02
-1.666914E-01
-2.961997E-01
-3.821400E-01
-4.695052E-01
-5.241312E-01
-5.739216E-01
8.285712E-02
-4.414247E-02
-1.911439E-01
-2.647231E-01
2.162921E-01
3.421480E-01
4.791872E-01
-4.305777E-01
-4.862348E-01
-5.866641E-01
6.251391E-01
5.564753E-01
4.191732E-01
2.960744E-01
1.642045E-01
3.766674E-02
-1.041565E-01
-2.502670E-01
-3.656190E-01
-4.495722E-01
-5.310265E-01
-5.739216E-01
-6.355824E-01
4.519038E-02
-8.300729E-02
-2.144085E-01
-3.296818E-01
1.999033E-01
2.821340E-01
-4.515391E-01
-5.618055E-01
-6.414297E-01
4.791872E-01
3.421480E-01
2.162921E-01
8.285712E-02
-4.414247E-02
-1.911439E-01
-2.647231E-01
-4.305777E-01
-4.862348E-01
-5.866641E-01
-6.355824E-01
-6.876494E-01
1.101491E-01
-3.886482E-02
-1.662859E-01
-2.952387E-01
-4.056064E-01
-5.322160E-01
-5.868253E-01
-7.014437E-01
2.821340E-01
1.999033E-01
4.519038E-02
-8.300729E-02
-2.144085E-01
-3.296818E-01
-4.515391E-01
-5.618055E-01
-6.414297E-01
-6.876494E-01
-7.317534E-01
-1.038235E-01
-1.871021E-01
-3.356723E-01
-4.494518E-01
-5.603797E-01
-6.468392E-01
-7.301791E-01
1.101491E-01
-3.886482E-02
-1.662859E-01
-2.952387E-01
-4.056064E-01
-5.322160E-01
-5.868253E-01
-7.014437E-01
-7.317534E-01
-7.878143E-01
-2.756583E-01
-4.139608E-01
-5.235483E-01
-6.283870E-01
-7.053205E-01
-7.922631E-01
-1.038235E-01
-1.871021E-01
-3.356723E-01
-4.494518E-01
-5.603797E-01
-6.468392E-01
-7.301791E-01
-7.878143E-01
-8.195886E-01
-4.739748E-01
-5.456229E-01
-6.654318E-01
-7.474714E-01
-8.210383E-01
-2.756583E-01
-4.139608E-01
-5.235483E-01
-6.283870E-01
-7.053205E-01
-7.922631E-01
-8.195886E-01
-8.655213E-01
-6.194991E-01
-7.260350E-01
-8.011052E-01
-8.658692E-01
-4.739748E-01
-5.456229E-01
-6.654318E-01
-7.474714E-01
-8.210383E-01
-8.655213E-01
-8.976558E-01
-7.719677E-01
-8.210775E-01
-8.938855E-01
-6.194991E-01
-7.260350E-01
-8.011052E-01
-8.658692E-01
-8.976558E-01
-9.316953E-01
-8.690268E-01
-9.275770E-01
-7.719677E-01
-8.210775E-01
-8.938855E-01
-9.316953E-01
-9.567012E-01
-9.524356E-01
-8.690268E-01
-9.275770E-01
-9.567012E-01
-9.715306E-01
-9.524356E-01
-9.715306E-01
-9.862531E-01
-9.862531E-01
