# vtk DataFile Version 2.0
Grille
ASCII
DATASET POLYDATA
POINTS 481 float
0.000000E+00 8.750000E-01 -8.938890E-01
6.250000E-02 8.750000E-01 -8.749495E-01
1.250000E-01 8.750000E-01 -8.257786E-01
1.250000E-01 9.375000E-01 -8.749495E-01
1.250000E-01 1.000000E+00 -8.938890E-01
6.250000E-02 1.000000E+00 -9.471427E-01
0.000000E+00 1.000000E+00 -9.680872E-01
0.000000E+00 9.375000E-01 -9.471427E-01
3.750000E-02 9.125000E-01 -9.218251E-01
8.125000E-02 9.187500E-01 -9.037355E-01
8.750000E-02 9.625000E-01 -9.218251E-01
4.375000E-02 9.562500E-01 -9.473392E-01
1.875000E-01 8.750000E-01 -7.417727E-01
2.500000E-01 8.750000E-01 -6.318767E-01
2.500000E-01 9.375000E-01 -6.695798E-01
2.500000E-01 1.000000E+00 -6.839623E-01
1.875000E-01 1.000000E+00 -8.027552E-01
1.625000E-01 9.125000E-01 -8.098566E-01
2.062500E-01 9.187500E-01 -7.444996E-01
2.125000E-01 9.625000E-01 -7.520137E-01
1.687500E-01 9.562500E-01 -8.248819E-01
0.000000E+00 7.500000E-01 -6.839623E-01
6.250000E-02 7.500000E-01 -6.695798E-01
1.250000E-01 7.500000E-01 -6.318767E-01
1.250000E-01 8.125000E-01 -7.417727E-01
0.000000E+00 8.125000E-01 -8.027552E-01
3.750000E-02 7.875000E-01 -7.520137E-01
8.125000E-02 7.937500E-01 -7.444996E-01
8.750000E-02 8.375000E-01 -8.098566E-01
4.375000E-02 8.312500E-01 -8.248819E-01
1.875000E-01 7.500000E-01 -5.678283E-01
2.500000E-01 7.500000E-01 -4.834791E-01
2.500000E-01 8.125000E-01 -5.678283E-01
1.625000E-01 7.875000E-01 -6.608317E-01
2.062500E-01 7.937500E-01 -6.132982E-01
2.125000E-01 8.375000E-01 -6.608317E-01
1.687500E-01 8.312500E-01 -7.182965E-01
3.125000E-01 8.750000E-01 -4.956530E-01
3.750000E-01 8.750000E-01 -3.417691E-01
3.750000E-01 9.375000E-01 -3.622910E-01
3.750000E-01 1.000000E+00 -3.699399E-01
3.125000E-01 1.000000E+00 -5.362494E-01
2.875000E-01 9.125000E-01 -5.746025E-01
3.312500E-01 9.187500E-01 -4.719377E-01
3.375000E-01 9.625000E-01 -4.677638E-01
2.937500E-01 9.562500E-01 -5.769236E-01
4.375000E-01 8.750000E-01 -1.740646E-01
5.000000E-01 8.750000E-01 3.827756E-04
5.000000E-01 9.375000E-01 1.590582E-04
5.000000E-01 1.000000E+00 4.056980E-04
4.375000E-01 1.000000E+00 -1.881119E-01
4.125000E-01 9.125000E-01 -2.518718E-01
4.562500E-01 9.187500E-01 -1.275241E-01
4.625000E-01 9.625000E-01 -1.123020E-01
4.187500E-01 9.562500E-01 -2.411432E-01
3.125000E-01 7.500000E-01 -3.795741E-01
3.750000E-01 7.500000E-01 -2.614348E-01
3.750000E-01 8.125000E-01 -3.074088E-01
2.875000E-01 7.875000E-01 -4.689888E-01
3.312500E-01 7.937500E-01 -3.886866E-01
3.375000E-01 8.375000E-01 -4.111753E-01
2.937500E-01 8.312500E-01 -5.023191E-01
4.375000E-01 7.500000E-01 -1.334996E-01
5.000000E-01 7.500000E-01 4.403222E-04
5.000000E-01 8.125000E-01 -1.674357E-04
4.125000E-01 7.875000E-01 -2.057167E-01
4.562500E-01 7.937500E-01 -1.048752E-01
4.625000E-01 8.375000E-01 -9.890314E-02
4.187500E-01 8.312500E-01 -2.098479E-01
0.000000E+00 6.250000E-01 -3.699399E-01
6.250000E-02 6.250000E-01 -3.622910E-01
1.250000E-01 6.250000E-01 -3.417691E-01
1.250000E-01 6.875000E-01 -4.956530E-01
0.000000E+00 6.875000E-01 -5.362494E-01
3.750000E-02 6.625000E-01 -4.677638E-01
8.125000E-02 6.687500E-01 -4.719377E-01
8.750000E-02 7.125000E-01 -5.746025E-01
4.375000E-02 7.062500E-01 -5.769236E-01
1.875000E-01 6.250000E-01 -3.074088E-01
2.500000E-01 6.250000E-01 -2.614348E-01
2.500000E-01 6.875000E-01 -3.795741E-01
1.625000E-01 6.625000E-01 -4.111753E-01
2.062500E-01 6.687500E-01 -3.886866E-01
2.125000E-01 7.125000E-01 -4.689888E-01
1.687500E-01 7.062500E-01 -5.023191E-01
0.000000E+00 5.000000E-01 4.056980E-04
6.250000E-02 5.000000E-01 1.590582E-04
1.250000E-01 5.000000E-01 3.827756E-04
1.250000E-01 5.625000E-01 -1.740646E-01
0.000000E+00 5.625000E-01 -1.881119E-01
3.750000E-02 5.375000E-01 -1.123020E-01
8.125000E-02 5.437500E-01 -1.275241E-01
8.750000E-02 5.875000E-01 -2.518718E-01
4.375000E-02 5.812500E-01 -2.411432E-01
1.875000E-01 5.000000E-01 -1.674357E-04
2.500000E-01 5.000000E-01 4.403222E-04
2.500000E-01 5.625000E-01 -1.334996E-01
1.625000E-01 5.375000E-01 -9.890314E-02
2.062500E-01 5.437500E-01 -1.048752E-01
2.125000E-01 5.875000E-01 -2.057167E-01
1.687500E-01 5.812500E-01 -2.098479E-01
3.125000E-01 6.250000E-01 -2.056593E-01
3.750000E-01 6.250000E-01 -1.412453E-01
3.750000E-01 6.875000E-01 -2.056593E-01
2.875000E-01 6.625000E-01 -2.919232E-01
3.312500E-01 6.687500E-01 -2.462034E-01
3.375000E-01 7.125000E-01 -2.919232E-01
2.937500E-01 7.062500E-01 -3.511832E-01
4.375000E-01 6.250000E-01 -7.255385E-02
5.000000E-01 6.250000E-01 4.884335E-04
5.000000E-01 6.875000E-01 -3.983128E-04
4.125000E-01 6.625000E-01 -1.281821E-01
4.562500E-01 6.687500E-01 -6.619680E-02
4.625000E-01 7.125000E-01 -7.037860E-02
4.187500E-01 7.062500E-01 -1.465416E-01
3.125000E-01 5.000000E-01 -3.983128E-04
3.750000E-01 5.000000E-01 4.884335E-04
3.750000E-01 5.625000E-01 -7.255385E-02
2.875000E-01 5.375000E-01 -7.037860E-02
3.312500E-01 5.437500E-01 -6.619680E-02
3.375000E-01 5.875000E-01 -1.281821E-01
2.937500E-01 5.812500E-01 -1.465416E-01
4.375000E-01 5.000000E-01 -5.186491E-04
5.000000E-01 5.000000E-01 5.068143E-04
5.000000E-01 5.625000E-01 -5.186491E-04
4.125000E-01 5.375000E-01 -3.108716E-02
4.562500E-01 5.437500E-01 -1.739286E-02
4.625000E-01 5.875000E-01 -3.108716E-02
4.187500E-01 5.812500E-01 -6.087527E-02
5.625000E-01 8.750000E-01 1.740383E-01
6.250000E-01 8.750000E-01 3.424918E-01
6.250000E-01 9.375000E-01 3.625959E-01
6.250000E-01 1.000000E+00 3.706990E-01
5.625000E-01 1.000000E+00 1.886722E-01
5.375000E-01 9.125000E-01 1.092146E-01
5.812500E-01 9.187500E-01 2.363156E-01
5.875000E-01 9.625000E-01 2.602663E-01
5.437500E-01 9.562500E-01 1.313571E-01
6.875000E-01 8.750000E-01 4.956604E-01
7.500000E-01 8.750000E-01 6.324724E-01
7.500000E-01 9.375000E-01 6.698365E-01
7.500000E-01 1.000000E+00 6.845599E-01
6.875000E-01 1.000000E+00 5.367408E-01
6.625000E-01 9.125000E-01 4.536863E-01
7.062500E-01 9.187500E-01 5.641887E-01
7.125000E-01 9.625000E-01 5.932189E-01
6.687500E-01 9.562500E-01 4.838692E-01
5.625000E-01 7.500000E-01 1.329269E-01
6.250000E-01 7.500000E-01 2.622758E-01
6.250000E-01 8.125000E-01 3.071207E-01
5.375000E-01 7.875000E-01 8.889813E-02
5.812500E-01 7.937500E-01 1.949257E-01
5.875000E-01 8.375000E-01 2.284449E-01
5.437500E-01 8.312500E-01 1.145899E-01
6.875000E-01 7.500000E-01 3.791444E-01
7.500000E-01 7.500000E-01 4.842118E-01
7.500000E-01 8.125000E-01 5.676742E-01
6.625000E-01 7.875000E-01 3.700028E-01
7.062500E-01 7.937500E-01 4.650744E-01
7.125000E-01 8.375000E-01 5.210326E-01
6.687500E-01 8.312500E-01 4.216018E-01
8.125000E-01 8.750000E-01 7.418330E-01
8.750000E-01 8.750000E-01 8.261726E-01
8.750000E-01 9.375000E-01 8.750828E-01
8.750000E-01 1.000000E+00 8.941712E-01
8.125000E-01 1.000000E+00 8.030883E-01
7.875000E-01 9.125000E-01 7.290935E-01
8.312500E-01 9.187500E-01 8.061670E-01
8.375000E-01 9.625000E-01 8.358473E-01
7.937500E-01 9.562500E-01 7.627151E-01
9.375000E-01 8.750000E-01 8.750828E-01
1.000000E+00 8.750000E-01 8.941712E-01
1.000000E+00 9.375000E-01 9.470841E-01
1.000000E+00 1.000000E+00 9.672854E-01
9.375000E-01 1.000000E+00 9.470841E-01
9.125000E-01 9.125000E-01 8.934903E-01
9.562500E-01 9.187500E-01 9.253945E-01
9.625000E-01 9.625000E-01 9.511215E-01
9.187500E-01 9.562500E-01 9.253945E-01
8.125000E-01 7.500000E-01 5.676742E-01
8.750000E-01 7.500000E-01 6.324724E-01
8.750000E-01 8.125000E-01 7.418330E-01
7.875000E-01 7.875000E-01 5.948044E-01
8.312500E-01 7.937500E-01 6.644477E-01
8.375000E-01 8.375000E-01 7.343168E-01
7.937500E-01 8.312500E-01 6.644477E-01
9.375000E-01 7.500000E-01 6.698365E-01
1.000000E+00 7.500000E-01 6.845599E-01
1.000000E+00 8.125000E-01 8.030883E-01
9.125000E-01 7.875000E-01 7.290935E-01
9.562500E-01 7.937500E-01 7.627151E-01
9.625000E-01 8.375000E-01 8.358473E-01
9.187500E-01 8.312500E-01 8.061670E-01
5.625000E-01 6.250000E-01 7.163513E-02
6.250000E-01 6.250000E-01 1.421848E-01
6.250000E-01 6.875000E-01 2.049562E-01
5.375000E-01 6.625000E-01 5.511003E-02
5.812500E-01 6.687500E-01 1.239223E-01
5.875000E-01 7.125000E-01 1.619115E-01
5.437500E-01 7.062500E-01 8.044223E-02
6.875000E-01 6.250000E-01 2.049562E-01
7.500000E-01 6.250000E-01 2.622758E-01
7.500000E-01 6.875000E-01 3.791444E-01
6.625000E-01 6.625000E-01 2.300471E-01
7.062500E-01 6.687500E-01 2.952111E-01
7.125000E-01 7.125000E-01 3.695844E-01
6.687500E-01 7.062500E-01 2.952111E-01
5.625000E-01 5.000000E-01 -5.186491E-04
6.250000E-01 5.000000E-01 4.884335E-04
6.250000E-01 5.625000E-01 7.163513E-02
5.375000E-01 5.375000E-01 1.297918E-02
5.812500E-01 5.437500E-01 3.409948E-02
5.875000E-01 5.875000E-01 7.077960E-02
5.437500E-01 5.812500E-01 3.409948E-02
6.875000E-01 5.000000E-01 -3.983128E-04
7.500000E-01 5.000000E-01 4.403222E-04
7.500000E-01 5.625000E-01 1.329269E-01
6.625000E-01 5.375000E-01 5.511003E-02
7.062500E-01 5.437500E-01 8.044223E-02
7.125000E-01 5.875000E-01 1.619115E-01
6.687500E-01 5.812500E-01 1.239223E-01
8.125000E-01 6.250000E-01 3.071207E-01
8.750000E-01 6.250000E-01 3.424918E-01
8.750000E-01 6.875000E-01 4.956604E-01
7.875000E-01 6.625000E-01 3.700028E-01
8.312500E-01 6.687500E-01 4.216018E-01
8.375000E-01 7.125000E-01 5.210326E-01
7.937500E-01 7.062500E-01 4.650744E-01
9.375000E-01 6.250000E-01 3.625959E-01
1.000000E+00 6.250000E-01 3.706990E-01
1.000000E+00 6.875000E-01 5.367408E-01
9.125000E-01 6.625000E-01 4.536863E-01
9.562500E-01 6.687500E-01 4.838692E-01
9.625000E-01 7.125000E-01 5.932189E-01
9.187500E-01 7.062500E-01 5.641887E-01
8.125000E-01 5.000000E-01 -1.674357E-04
8.750000E-01 5.000000E-01 3.827756E-04
8.750000E-01 5.625000E-01 1.740383E-01
7.875000E-01 5.375000E-01 8.889813E-02
8.312500E-01 5.437500E-01 1.145899E-01
8.375000E-01 5.875000E-01 2.284449E-01
7.937500E-01 5.812500E-01 1.949257E-01
9.375000E-01 5.000000E-01 1.590582E-04
1.000000E+00 5.000000E-01 4.056980E-04
1.000000E+00 5.625000E-01 1.886722E-01
9.125000E-01 5.375000E-01 1.092146E-01
9.562500E-01 5.437500E-01 1.313571E-01
9.625000E-01 5.875000E-01 2.602663E-01
9.187500E-01 5.812500E-01 2.363156E-01
0.000000E+00 3.750000E-01 3.706990E-01
6.250000E-02 3.750000E-01 3.625959E-01
[...]
CELL_DATA 896
SCALARS sol float 1
LOOKUP_TABLE default
-8.968879E-01
-9.001700E-01
-9.209523E-01
-8.645734E-01
-9.242999E-01
-8.681545E-01
-9.387690E-01
-8.405087E-01
-8.365626E-01
-9.242999E-01
-8.681545E-01
-8.368616E-01
-9.541897E-01
-7.932169E-01
-7.930794E-01
-9.387690E-01
-9.001700E-01
-8.368616E-01
-7.924693E-01
-9.541897E-01
-7.737984E-01
-7.462438E-01
-7.653763E-01
-9.209523E-01
-8.968879E-01
-7.924693E-01
-8.365626E-01
-7.619493E-01
-7.220311E-01
-7.018520E-01
-7.060497E-01
-8.645734E-01
-7.653763E-01
-7.619493E-01
-7.930794E-01
-7.069670E-01
-6.819854E-01
-6.434886E-01
-6.781604E-01
-8.405087E-01
-7.060497E-01
-7.069670E-01
-7.737984E-01
-6.641421E-01
-6.253530E-01
-5.990451E-01
-6.070353E-01
-6.201789E-01
-7.932169E-01
-6.819854E-01
-6.781604E-01
-6.641421E-01
-7.220311E-01
-6.139861E-01
-5.673774E-01
-5.269789E-01
-5.411546E-01
-5.673414E-01
-7.462438E-01
-6.253530E-01
-6.201789E-01
-6.139861E-01
-7.018520E-01
-5.548685E-01
-5.140644E-01
-5.432829E-01
-5.055417E-01
-4.579843E-01
-5.130454E-01
-5.673774E-01
-6.070353E-01
-5.673414E-01
-5.548685E-01
-6.434886E-01
-5.067654E-01
-4.364533E-01
-4.697158E-01
-4.339975E-01
-3.999982E-01
-4.533315E-01
-5.140644E-01
-5.432829E-01
-5.411546E-01
-5.130454E-01
-5.067654E-01
-5.990451E-01
-4.440140E-01
-3.919993E-01
-4.161991E-01
-4.340603E-01
-3.244580E-01
-4.124165E-01
-4.364533E-01
-4.697158E-01
-5.055417E-01
-4.533315E-01
-4.440140E-01
-5.269789E-01
-4.047455E-01
-3.186440E-01
-3.534511E-01
-3.690902E-01
-2.663983E-01
-2.851020E-01
-3.432318E-01
-3.919993E-01
-4.161991E-01
-4.340603E-01
-4.339975E-01
-4.124165E-01
-4.047455E-01
-4.579843E-01
-3.408935E-01
-2.559019E-01
-2.863419E-01
-3.191767E-01
-1.805190E-01
-2.068464E-01
-3.109774E-01
-3.186440E-01
-3.534511E-01
-3.690902E-01
-3.999982E-01
-3.432318E-01
-3.408935E-01
-2.964366E-01
-2.418939E-01
-1.844868E-01
-2.409911E-01
-2.581868E-01
-1.603231E-01
-1.000027E-01
-2.530058E-01
-2.559019E-01
-2.851020E-01
-2.863419E-01
-3.191767E-01
-3.244580E-01
-3.109774E-01
-2.964366E-01
-2.479287E-01
-1.609386E-01
-1.004020E-01
-1.734799E-01
-2.002170E-01
-7.988901E-02
-3.724575E-02
-2.045453E-01
-1.844868E-01
-2.418939E-01
-2.068464E-01
-2.409911E-01
-2.581868E-01
-2.663983E-01
-2.530058E-01
-2.479287E-01
-1.977027E-01
-1.378754E-01
-9.086167E-02
-4.232742E-02
-1.480305E-01
-1.804920E-01
4.397396E-02
-1.601277E-01
-1.004020E-01
-1.609386E-01
-1.603231E-01
-1.734799E-01
-2.002170E-01
-1.805190E-01
-2.045453E-01
-1.977027E-01
-1.583622E-01
-6.798192E-02
-3.289593E-02
3.658548E-02
-7.931148E-02
-1.168066E-01
1.068117E-01
8.024360E-02
-1.136402E-01
-4.232742E-02
-9.086167E-02
-1.378754E-01
-7.988901E-02
-1.480305E-01
-1.804920E-01
-1.000027E-01
-1.601277E-01
-1.583622E-01
-1.139938E-01
-3.486743E-02
3.826842E-02
9.454524E-02
-6.781262E-02
-9.437234E-02
1.934319E-01
1.589624E-01
-8.897758E-02
3.658548E-02
-3.289593E-02
-6.798192E-02
-3.724575E-02
-7.931148E-02
-1.168066E-01
-1.136402E-01
-1.139938E-01
-9.155815E-02
2.972367E-02
9.633701E-02
6.777354E-02
1.731895E-01
-2.344553E-02
-4.565790E-02
2.093130E-01
2.732125E-01
-4.608741E-02
9.454524E-02
8.024360E-02
3.826842E-02
-3.486743E-02
4.397396E-02
-6.781262E-02
-9.437234E-02
-8.897758E-02
-9.155815E-02
-5.483876E-02
7.408846E-02
1.723577E-01
1.328046E-01
2.509486E-01
2.682808E-02
-2.203556E-02
2.863926E-01
3.311871E-01
-3.438419E-02
1.731895E-01
9.633701E-02
1.589624E-01
6.777354E-02
2.972367E-02
1.068117E-01
-2.344553E-02
-4.565790E-02
-4.608741E-02
-5.483876E-02
-3.645176E-02
7.126982E-02
1.389169E-01
1.793202E-01
2.483250E-01
3.138011E-01
4.505132E-02
1.840005E-02
4.057214E-01
-1.037246E-02
2.509486E-01
1.723577E-01
2.093130E-01
1.328046E-01
7.408846E-02
1.934319E-01
2.682808E-02
-2.203556E-02
-3.438419E-02
-3.645176E-02
-1.633289E-02
1.250936E-01
1.967095E-01
2.434971E-01
2.926858E-01
3.862580E-01
8.649153E-02
4.241120E-02
4.637697E-01
4.333838E-01
1.135642E-02
3.138011E-01
2.483250E-01
1.793202E-01
2.863926E-01
1.389169E-01
7.126982E-02
2.732125E-01
4.505132E-02
1.840005E-02
-1.037246E-02
-1.633289E-02
-5.801565E-03
1.220920E-01
1.857047E-01
2.547740E-01
3.570714E-01
4.306128E-01
8.355583E-02
3.540768E-02
5.379430E-01
5.005814E-01
1.552000E-02
3.862580E-01
2.926858E-01
2.434971E-01
3.311871E-01
1.967095E-01
1.250936E-01
8.649153E-02
4.241120E-02
1.135642E-02
-5.801565E-03
4.322448E-03
1.635967E-01
2.097145E-01
3.131331E-01
4.199180E-01
3.662418E-01
5.045118E-01
1.125807E-01
5.883807E-02
5.470923E-01
6.048399E-01
2.705938E-02
4.306128E-01
4.333838E-01
3.570714E-01
2.547740E-01
4.057214E-01
1.857047E-01
1.220920E-01
8.355583E-02
3.540768E-02
1.552000E-02
4.322448E-03
4.322448E-03
1.570211E-01
2.541477E-01
3.371410E-01
4.794316E-01
4.188930E-01
5.641072E-01
9.486650E-02
4.632619E-02
6.090814E-01
6.492051E-01
1.552000E-02
5.045118E-01
4.199180E-01
5.005814E-01
3.662418E-01
3.131331E-01
4.637697E-01
2.097145E-01
1.635967E-01
1.125807E-01
5.883807E-02
2.705938E-02
4.322448E-03
-5.801565E-03
1.923960E-01
3.122104E-01
2.434048E-01
4.047405E-01
4.692363E-01
5.497218E-01
6.221659E-01
9.486650E-02
5.883807E-02
7.057038E-01
1.135642E-02
5.641072E-01
4.794316E-01
5.470923E-01
4.188930E-01
3.371410E-01
5.379430E-01
2.541477E-01
1.570211E-01
9.486650E-02
4.632619E-02
1.552000E-02
-5.801565E-03
-1.633289E-02
1.923960E-01
3.479799E-01
2.734898E-01
4.428102E-01
5.179271E-01
5.737264E-01
6.771341E-01
1.125807E-01
3.540768E-02
7.501211E-01
7.205484E-01
-1.037246E-02
6.221659E-01
5.497218E-01
4.692363E-01
6.090814E-01
4.047405E-01
3.122104E-01
6.048399E-01
2.434048E-01
1.923960E-01
9.486650E-02
5.883807E-02
1.135642E-02
-1.633289E-02
-3.645176E-02
1.570211E-01
2.434048E-01
3.200022E-01
4.109802E-01
5.056535E-01
6.215314E-01
7.011329E-01
8.355583E-02
4.241120E-02
8.005502E-01
7.659919E-01
-3.438419E-02
6.771341E-01
5.737264E-01
5.179271E-01
6.492051E-01
4.428102E-01
3.479799E-01
2.734898E-01
1.923960E-01
1.125807E-01
3.540768E-02
-1.037246E-02
-3.645176E-02
-5.483876E-02
1.635967E-01
2.541477E-01
3.479799E-01
4.109802E-01
5.488968E-01
6.795844E-01
6.089754E-01
7.590312E-01
8.649153E-02
1.840005E-02
8.015765E-01
8.443689E-01
-4.608741E-02
7.011329E-01
7.205484E-01
6.215314E-01
5.056535E-01
7.057038E-01
4.109802E-01
3.200022E-01
2.434048E-01
1.570211E-01
8.355583E-02
4.241120E-02
-3.438419E-02
-5.483876E-02
-9.155815E-02
1.220920E-01
2.097145E-01
3.122104E-01
4.428102E-01
5.488968E-01
7.135325E-01
6.412333E-01
7.913908E-01
4.505132E-02
-2.203556E-02
8.390324E-01
8.683671E-01
-8.897758E-02
7.590312E-01
6.795844E-01
7.659919E-01
6.089754E-01
5.488968E-01
7.501211E-01
4.109802E-01
3.479799E-01
2.541477E-01
1.635967E-01
8.649153E-02
1.840005E-02
-4.608741E-02
-9.155815E-02
-1.139938E-01
1.250936E-01
1.857047E-01
3.371410E-01
5.056535E-01
4.047405E-01
6.089754E-01
6.877374E-01
7.674408E-01
8.358075E-01
2.682808E-02
-4.565790E-02
8.982162E-01
-1.136402E-01
7.913908E-01
7.135325E-01
8.015765E-01
6.412333E-01
5.488968E-01
8.005502E-01
4.428102E-01
3.122104E-01
2.097145E-01
1.220920E-01
4.505132E-02
-2.203556E-02
-8.897758E-02
-1.139938E-01
-1.583622E-01
7.126982E-02
1.967095E-01
3.131331E-01
5.179271E-01
4.188930E-01
6.215314E-01
7.135325E-01
7.674408E-01
8.649152E-01
-2.344553E-02
-9.437234E-02
9.222166E-01
8.979892E-01
-1.601277E-01
8.358075E-01
7.674408E-01
6.877374E-01
8.390324E-01
6.089754E-01
5.056535E-01
8.443689E-01
4.047405E-01
3.371410E-01
1.857047E-01
1.250936E-01
2.682808E-02
-4.565790E-02
-1.136402E-01
-1.583622E-01
-1.977027E-01
7.408846E-02
2.547740E-01
1.389169E-01
3.662418E-01
4.692363E-01
5.737264E-01
6.795844E-01
7.913908E-01
8.649152E-01
-6.781262E-02
-1.168066E-01
9.412000E-01
9.147598E-01
-2.045453E-01
8.649152E-01
7.674408E-01
7.135325E-01
8.683671E-01
6.215314E-01
5.179271E-01
4.188930E-01
3.131331E-01
1.967095E-01
7.126982E-02
-2.344553E-02
-9.437234E-02
-1.601277E-01
-1.977027E-01
-2.479287E-01
2.972367E-02
2.434971E-01
1.328046E-01
3.570714E-01
4.794316E-01
5.497218E-01
7.011329E-01
8.358075E-01
7.590312E-01
8.979892E-01
-7.931148E-02
-1.804920E-01
9.339702E-01
9.551636E-01
-2.530058E-01
8.649152E-01
8.979892E-01
7.913908E-01
6.795844E-01
8.982162E-01
5.737264E-01
4.692363E-01
3.662418E-01
2.547740E-01
1.389169E-01
7.408846E-02
-6.781262E-02
-1.168066E-01
-2.045453E-01
-2.479287E-01
-2.964366E-01
6.777354E-02
-3.486743E-02
1.793202E-01
2.926858E-01
4.199180E-01
5.641072E-01
6.771341E-01
8.390324E-01
7.659919E-01
8.982162E-01
-1.480305E-01
-2.002170E-01
9.412000E-01
9.551636E-01
-3.109774E-01
8.979892E-01
8.358075E-01
9.147598E-01
7.590312E-01
7.011329E-01
9.222166E-01
5.497218E-01
4.794316E-01
3.570714E-01
2.434971E-01
1.328046E-01
2.972367E-02
-7.931148E-02
-1.804920E-01
-2.530058E-01
-2.964366E-01
-3.408935E-01
3.826842E-02
-6.798192E-02
1.723577E-01
2.483250E-01
4.306128E-01
6.221659E-01
5.045118E-01
7.205484E-01
8.015765E-01
8.683671E-01
9.222166E-01
-1.734799E-01
-2.581868E-01
-3.432318E-01
8.982162E-01
8.390324E-01
9.339702E-01
7.659919E-01
6.771341E-01
9.412000E-01
5.641072E-01
4.199180E-01
2.926858E-01
1.793202E-01
6.777354E-02
-3.486743E-02
-1.480305E-01
-2.002170E-01
-3.109774E-01
-3.408935E-01
-4.047455E-01
9.633701E-02
-3.289593E-02
-1.378754E-01
2.509486E-01
3.862580E-01
6.090814E-01
5.005814E-01
7.057038E-01
8.005502E-01
8.443689E-01
-2.409911E-01
-3.191767E-01
-4.124165E-01
9.222166E-01
8.683671E-01
8.015765E-01
9.412000E-01
7.205484E-01
6.221659E-01
9.551636E-01
5.045118E-01
4.306128E-01
2.483250E-01
1.723577E-01
3.826842E-02
-6.798192E-02
-1.734799E-01
-2.581868E-01
-3.432318E-01
-4.047455E-01
-4.440140E-01
9.454524E-02
-9.086167E-02
-1.609386E-01
3.138011E-01
1.731895E-01
4.333838E-01
5.470923E-01
6.492051E-01
7.501211E-01
-2.863419E-01
-3.690902E-01
-4.533315E-01
8.443689E-01
8.005502E-01
9.551636E-01
7.057038E-01
6.090814E-01
5.005814E-01
3.862580E-01
2.509486E-01
9.633701E-02
-3.289593E-02
-1.378754E-01
-2.409911E-01
-3.191767E-01
-4.124165E-01
-4.440140E-01
-5.067654E-01
3.658548E-02
-1.004020E-01
-2.418939E-01
2.863926E-01
1.589624E-01
4.057214E-01
5.379430E-01
6.048399E-01
-3.534511E-01
-4.340603E-01
-5.130454E-01
7.501211E-01
6.492051E-01
5.470923E-01
4.333838E-01
3.138011E-01
1.731895E-01
9.454524E-02
-9.086167E-02
-1.609386E-01
-2.863419E-01
-3.690902E-01
-4.533315E-01
-5.067654E-01
-5.548685E-01
8.024360E-02
-4.232742E-02
-1.844868E-01
-2.559019E-01
2.093130E-01
3.311871E-01
4.637697E-01
-4.161991E-01
-4.697158E-01
-5.673414E-01
6.048399E-01
5.379430E-01
4.057214E-01
2.863926E-01
1.589624E-01
3.658548E-02
-1.004020E-01
-2.418939E-01
-3.534511E-01
-4.340603E-01
-5.130454E-01
-5.548685E-01
-6.139861E-01
4.397396E-02
-7.988901E-02
-2.068464E-01
-3.186440E-01
1.934319E-01
2.732125E-01
-4.364533E-01
-5.432829E-01
-6.201789E-01
4.637697E-01
3.311871E-01
2.093130E-01
8.024360E-02
-4.232742E-02
-1.844868E-01
-2.559019E-01
-4.161991E-01
-4.697158E-01
-5.673414E-01
-6.139861E-01
-6.641421E-01
1.068117E-01
-3.724575E-02
-1.603231E-01
-2.851020E-01
-3.919993E-01
-5.140644E-01
-5.673774E-01
-6.781604E-01
2.732125E-01
1.934319E-01
4.397396E-02
-7.988901E-02
-2.068464E-01
-3.186440E-01
-4.364533E-01
-5.432829E-01
-6.201789E-01
-6.641421E-01
-7.069670E-01
-1.000027E-01
-1.805190E-01
-3.244580E-01
-4.339975E-01
-5.411546E-01
-6.253530E-01
-7.060497E-01
1.068117E-01
-3.724575E-02
-1.603231E-01
-2.851020E-01
-3.919993E-01
-5.140644E-01
-5.673774E-01
-6.781604E-01
-7.069670E-01
-7.619493E-01
-2.663983E-01
-3.999982E-01
-5.055417E-01
-6.070353E-01
-6.819854E-01
-7.653763E-01
-1.000027E-01
-1.805190E-01
-3.244580E-01
-4.339975E-01
-5.411546E-01
-6.253530E-01
-7.060497E-01
-7.619493E-01
-7.924693E-01
-4.579843E-01
-5.269789E-01
-6.434886E-01
-7.220311E-01
-7.930794E-01
-2.663983E-01
-3.999982E-01
-5.055417E-01
-6.070353E-01
-6.819854E-01
-7.653763E-01
-7.924693E-01
-8.368616E-01
-5.990451E-01
-7.018520E-01
-7.737984E-01
-8.365626E-01
-4.579843E-01
-5.269789E-01
-6.434886E-01
-7.220311E-01
-7.930794E-01
-8.368616E-01
-8.681545E-01
-7.462438E-01
-7.932169E-01
-8.645734E-01
-5.990451E-01
-7.018520E-01
-7.737984E-01
-8.365626E-01
-8.681545E-01
-9.001700E-01
-8.405087E-01
-8.968879E-01
-7.462438E-01
-7.932169E-01
-8.645734E-01
-9.001700E-01
-9.242999E-01
-9.209523E-01
-8.405087E-01
-8.968879E-01
-9.242999E-01
-9.387690E-01
-9.209523E-01
-9.387690E-01
-9.541897E-01
-9.541897E-01
