# vtk DataFile Version 2.0
Grille
ASCII
DATASET POLYDATA
POINTS 481 float
0.000000E+00 8.750000E-01 -9.159873E-01
6.250000E-02 8.750000E-01 -8.965815E-01
1.250000E-01 8.750000E-01 -8.461995E-01
1.250000E-01 9.375000E-01 -8.965815E-01
1.250000E-01 1.000000E+00 -9.159873E-01
6.250000E-02 1.000000E+00 -9.705530E-01
0.000000E+00 1.000000E+00 -9.920132E-01
0.000000E+00 9.375000E-01 -9.705530E-01
3.750000E-02 9.125000E-01 -9.446117E-01
8.125000E-02 9.187500E-01 -9.260765E-01
8.750000E-02 9.625000E-01 -9.446117E-01
4.375000E-02 9.562500E-01 -9.707543E-01
1.875000E-01 8.750000E-01 -7.601245E-01
2.500000E-01 8.750000E-01 -6.475215E-01
2.500000E-01 9.375000E-01 -6.861533E-01
2.500000E-01 1.000000E+00 -7.008898E-01
1.875000E-01 1.000000E+00 -8.226090E-01
1.625000E-01 9.125000E-01 -8.298854E-01
2.062500E-01 9.187500E-01 -7.629185E-01
2.125000E-01 9.625000E-01 -7.706176E-01
1.687500E-01 9.562500E-01 -8.452808E-01
0.000000E+00 7.500000E-01 -7.008898E-01
6.250000E-02 7.500000E-01 -6.861533E-01
1.250000E-01 7.500000E-01 -6.475215E-01
1.250000E-01 8.125000E-01 -7.601245E-01
0.000000E+00 8.125000E-01 -8.226090E-01
3.750000E-02 7.875000E-01 -7.706176E-01
8.125000E-02 7.937500E-01 -7.629185E-01
8.750000E-02 8.375000E-01 -8.298854E-01
4.375000E-02 8.312500E-01 -8.452808E-01
1.875000E-01 7.500000E-01 -5.818956E-01
2.500000E-01 7.500000E-01 -4.954686E-01
2.500000E-01 8.125000E-01 -5.818956E-01
1.625000E-01 7.875000E-01 -6.771898E-01
2.062500E-01 7.937500E-01 -6.284853E-01
2.125000E-01 8.375000E-01 -6.771898E-01
1.687500E-01 8.312500E-01 -7.360701E-01
3.125000E-01 8.750000E-01 -5.079425E-01
3.750000E-01 8.750000E-01 -3.502681E-01
3.750000E-01 9.375000E-01 -3.712955E-01
3.750000E-01 1.000000E+00 -3.791325E-01
3.125000E-01 1.000000E+00 -5.495388E-01
2.875000E-01 9.125000E-01 -5.888366E-01
3.312500E-01 9.187500E-01 -4.836429E-01
3.375000E-01 9.625000E-01 -4.793662E-01
2.937500E-01 9.562500E-01 -5.912149E-01
4.375000E-01 8.750000E-01 -1.784328E-01
5.000000E-01 8.750000E-01 3.114662E-04
5.000000E-01 9.375000E-01 8.227313E-05
5.000000E-01 1.000000E+00 3.352415E-04
4.375000E-01 1.000000E+00 -1.928261E-01
4.125000E-01 9.125000E-01 -2.581566E-01
4.562500E-01 9.187500E-01 -1.307458E-01
4.625000E-01 9.625000E-01 -1.151488E-01
4.187500E-01 9.562500E-01 -2.471637E-01
3.125000E-01 7.500000E-01 -3.890043E-01
3.750000E-01 7.500000E-01 -2.679550E-01
3.750000E-01 8.125000E-01 -3.150615E-01
2.875000E-01 7.875000E-01 -4.806214E-01
3.312500E-01 7.937500E-01 -3.983411E-01
3.375000E-01 8.375000E-01 -4.213839E-01
2.937500E-01 8.312500E-01 -5.147728E-01
4.375000E-01 7.500000E-01 -1.368685E-01
5.000000E-01 7.500000E-01 3.705634E-04
5.000000E-01 8.125000E-01 -2.522304E-04
4.125000E-01 7.875000E-01 -2.108645E-01
4.562500E-01 7.937500E-01 -1.075390E-01
4.625000E-01 8.375000E-01 -1.014199E-01
4.187500E-01 8.312500E-01 -2.150976E-01
0.000000E+00 6.250000E-01 -3.791325E-01
6.250000E-02 6.250000E-01 -3.712955E-01
1.250000E-01 6.250000E-01 -3.502681E-01
1.250000E-01 6.875000E-01 -5.079425E-01
0.000000E+00 6.875000E-01 -5.495388E-01
3.750000E-02 6.625000E-01 -4.793662E-01
8.125000E-02 6.687500E-01 -4.836429E-01
8.750000E-02 7.125000E-01 -5.888366E-01
4.375000E-02 7.062500E-01 -5.912149E-01
1.875000E-01 6.250000E-01 -3.150615E-01
2.500000E-01 6.250000E-01 -2.679550E-01
2.500000E-01 6.875000E-01 -3.890043E-01
1.625000E-01 6.625000E-01 -4.213839E-01
2.062500E-01 6.687500E-01 -3.983411E-01
2.125000E-01 7.125000E-01 -4.806214E-01
1.687500E-01 7.062500E-01 -5.147728E-01
0.000000E+00 5.000000E-01 3.352415E-04
6.250000E-02 5.000000E-01 8.227313E-05
1.250000E-01 5.000000E-01 3.114662E-04
1.250000E-01 5.625000E-01 -1.784328E-01
0.000000E+00 5.625000E-01 -1.928261E-01
3.750000E-02 5.375000E-01 -1.151488E-01
8.125000E-02 5.437500E-01 -1.307458E-01
8.750000E-02 5.875000E-01 -2.581566E-01
4.375000E-02 5.812500E-01 -2.471637E-01
1.875000E-01 5.000000E-01 -2.522304E-04
2.500000E-01 5.000000E-01 3.705634E-04
2.500000E-01 5.625000E-01 -1.368685E-01
1.625000E-01 5.375000E-01 -1.014199E-01
2.062500E-01 5.437500E-01 -1.075390E-01
2.125000E-01 5.875000E-01 -2.108645E-01
1.687500E-01 5.812500E-01 -2.150976E-01
3.125000E-01 6.250000E-01 -2.108055E-01
3.750000E-01 6.250000E-01 -1.448049E-01
3.750000E-01 6.875000E-01 -2.108055E-01
2.875000E-01 6.625000E-01 -2.991943E-01
3.312500E-01 6.687500E-01 -2.523483E-01
3.375000E-01 7.125000E-01 -2.991943E-01
2.937500E-01 7.062500E-01 -3.599142E-01
4.375000E-01 6.250000E-01 -7.442138E-02
5.000000E-01 6.250000E-01 4.200327E-04
5.000000E-01 6.875000E-01 -4.886089E-04
4.125000E-01 6.625000E-01 -1.314199E-01
4.562500E-01 6.687500E-01 -6.790775E-02
4.625000E-01 7.125000E-01 -7.219264E-02
4.187500E-01 7.062500E-01 -1.502318E-01
3.125000E-01 5.000000E-01 -4.886089E-04
3.750000E-01 5.000000E-01 4.200327E-04
3.750000E-01 5.625000E-01 -7.442138E-02
2.875000E-01 5.375000E-01 -7.219264E-02
3.312500E-01 5.437500E-01 -6.790775E-02
3.375000E-01 5.875000E-01 -1.314199E-01
2.937500E-01 5.812500E-01 -1.502318E-01
4.375000E-01 5.000000E-01 -6.117705E-04
5.000000E-01 5.000000E-01 4.389390E-04
5.000000E-01 5.625000E-01 -6.117705E-04
4.125000E-01 5.375000E-01 -3.193326E-02
4.562500E-01 5.437500E-01 -1.790161E-02
4.625000E-01 5.875000E-01 -3.193326E-02
4.187500E-01 5.812500E-01 -6.245518E-02
5.625000E-01 8.750000E-01 1.782444E-01
6.250000E-01 8.750000E-01 3.508471E-01
6.250000E-01 9.375000E-01 3.714465E-01
6.250000E-01 1.000000E+00 3.797494E-01
5.625000E-01 1.000000E+00 1.932387E-01
5.375000E-01 9.125000E-01 1.118239E-01
5.812500E-01 9.187500E-01 2.420558E-01
5.875000E-01 9.625000E-01 2.665965E-01
5.437500E-01 9.562500E-01 1.345119E-01
6.875000E-01 8.750000E-01 5.077885E-01
7.500000E-01 8.750000E-01 6.479703E-01
7.500000E-01 9.375000E-01 6.862549E-01
7.500000E-01 1.000000E+00 7.013410E-01
6.875000E-01 1.000000E+00 5.498809E-01
6.625000E-01 9.125000E-01 4.647805E-01
7.062500E-01 9.187500E-01 5.780048E-01
7.125000E-01 9.625000E-01 6.077501E-01
6.687500E-01 9.562500E-01 4.957068E-01
5.625000E-01 7.500000E-01 1.361205E-01
6.250000E-01 7.500000E-01 2.686553E-01
6.250000E-01 8.125000E-01 3.146048E-01
5.375000E-01 7.875000E-01 9.100712E-02
5.812500E-01 7.937500E-01 1.996464E-01
5.875000E-01 8.375000E-01 2.339911E-01
5.437500E-01 8.312500E-01 1.173317E-01
6.875000E-01 7.500000E-01 3.884026E-01
7.500000E-01 7.500000E-01 4.960579E-01
7.500000E-01 8.125000E-01 5.815761E-01
6.625000E-01 7.875000E-01 3.790358E-01
7.062500E-01 7.937500E-01 4.764492E-01
7.125000E-01 8.375000E-01 5.337858E-01
6.687500E-01 8.312500E-01 4.319057E-01
8.125000E-01 8.750000E-01 7.600246E-01
8.750000E-01 8.750000E-01 8.464416E-01
8.750000E-01 9.375000E-01 8.965567E-01
8.750000E-01 1.000000E+00 9.161153E-01
8.125000E-01 1.000000E+00 8.227889E-01
7.875000E-01 9.125000E-01 7.469714E-01
8.312500E-01 9.187500E-01 8.259434E-01
8.375000E-01 9.625000E-01 8.563548E-01
7.937500E-01 9.562500E-01 7.814211E-01
9.375000E-01 8.750000E-01 8.965567E-01
1.000000E+00 8.750000E-01 9.161153E-01
1.000000E+00 9.375000E-01 9.703315E-01
1.000000E+00 1.000000E+00 9.910304E-01
9.375000E-01 1.000000E+00 9.703315E-01
9.125000E-01 9.125000E-01 9.154176E-01
9.562500E-01 9.187500E-01 9.481077E-01
9.625000E-01 9.625000E-01 9.744684E-01
9.187500E-01 9.562500E-01 9.481077E-01
8.125000E-01 7.500000E-01 5.815761E-01
8.750000E-01 7.500000E-01 6.479703E-01
8.750000E-01 8.125000E-01 7.600246E-01
7.875000E-01 7.875000E-01 6.093745E-01
8.312500E-01 7.937500E-01 6.807333E-01
8.375000E-01 8.375000E-01 7.523234E-01
7.937500E-01 8.312500E-01 6.807333E-01
9.375000E-01 7.500000E-01 6.862549E-01
1.000000E+00 7.500000E-01 7.013410E-01
1.000000E+00 8.125000E-01 8.227889E-01
9.125000E-01 7.875000E-01 7.469714E-01
9.562500E-01 7.937500E-01 7.814211E-01
9.625000E-01 8.375000E-01 8.563548E-01
9.187500E-01 8.312500E-01 8.259434E-01
5.625000E-01 6.250000E-01 7.331919E-02
6.250000E-01 6.250000E-01 1.456065E-01
6.250000E-01 6.875000E-01 2.099240E-01
5.375000E-01 6.625000E-01 5.638696E-02
5.812500E-01 6.687500E-01 1.268943E-01
5.875000E-01 7.125000E-01 1.658191E-01
5.437500E-01 7.062500E-01 8.234306E-02
6.875000E-01 6.250000E-01 2.099240E-01
7.500000E-01 6.250000E-01 2.686553E-01
7.500000E-01 6.875000E-01 3.884026E-01
6.625000E-01 6.625000E-01 2.356329E-01
7.062500E-01 6.687500E-01 3.024020E-01
7.125000E-01 7.125000E-01 3.786072E-01
6.687500E-01 7.062500E-01 3.024020E-01
5.625000E-01 5.000000E-01 -6.117705E-04
6.250000E-01 5.000000E-01 4.200327E-04
6.250000E-01 5.625000E-01 7.331919E-02
5.375000E-01 5.375000E-01 1.321850E-02
5.812500E-01 5.437500E-01 3.485900E-02
5.875000E-01 5.875000E-01 7.244262E-02
5.437500E-01 5.812500E-01 3.485900E-02
6.875000E-01 5.000000E-01 -4.886089E-04
7.500000E-01 5.000000E-01 3.705634E-04
7.500000E-01 5.625000E-01 1.361205E-01
6.625000E-01 5.375000E-01 5.638696E-02
7.062500E-01 5.437500E-01 8.234306E-02
7.125000E-01 5.875000E-01 1.658191E-01
6.687500E-01 5.812500E-01 1.268943E-01
8.125000E-01 6.250000E-01 3.146048E-01
8.750000E-01 6.250000E-01 3.508471E-01
8.750000E-01 6.875000E-01 5.077885E-01
7.875000E-01 6.625000E-01 3.790358E-01
8.312500E-01 6.687500E-01 4.319057E-01
8.375000E-01 7.125000E-01 5.337858E-01
7.937500E-01 7.062500E-01 4.764492E-01
9.375000E-01 6.250000E-01 3.714465E-01
1.000000E+00 6.250000E-01 3.797494E-01
1.000000E+00 6.875000E-01 5.498809E-01
9.125000E-01 6.625000E-01 4.647805E-01
9.562500E-01 6.687500E-01 4.957068E-01
9.625000E-01 7.125000E-01 6.077501E-01
9.187500E-01 7.062500E-01 5.780048E-01
8.125000E-01 5.000000E-01 -2.522304E-04
8.750000E-01 5.000000E-01 3.114662E-04
8.750000E-01 5.625000E-01 1.782444E-01
7.875000E-01 5.375000E-01 9.100712E-02
8.312500E-01 5.437500E-01 1.173317E-01
8.375000E-01 5.875000E-01 2.339911E-01
7.937500E-01 5.812500E-01 1.996464E-01
9.375000E-01 5.000000E-01 8.227313E-05
1.000000E+00 5.000000E-01 3.352415E-04
1.000000E+00 5.625000E-01 1.932387E-01
9.125000E-01 5.375000E-01 1.118239E-01
9.562500E-01 5.437500E-01 1.345119E-01
9.625000E-01 5.875000E-01 2.665965E-01
9.187500E-01 5.812500E-01 2.420558E-01
0.000000E+00 3.750000E-01 3.797494E-01
6.250000E-02 3.750000E-01 3.714465E-01
[...]
CELL_DATA 896
SCALARS sol float 1
LOOKUP_TABLE default
-9.190602E-01
-9.224232E-01
-9.437173E-01
-8.859499E-01
-9.471475E-01
-8.896192E-01
-9.619730E-01
-8.612924E-01
-8.572492E-01
-9.471475E-01
-8.896192E-01
-8.575554E-01
-9.777735E-01
-8.128358E-01
-8.126949E-01
-9.619730E-01
-9.224232E-01
-8.575554E-01
-8.120698E-01
-9.777735E-01
-7.929389E-01
-7.647055E-01
-7.843094E-01
-9.437173E-01
-9.190602E-01
-8.120698E-01
-8.572492E-01
-7.807980E-01
-7.398965E-01
-7.192203E-01
-7.235215E-01
-8.859499E-01
-7.843094E-01
-7.807980E-01
-8.126949E-01
-7.244614E-01
-6.988644E-01
-6.594194E-01
-6.949453E-01
-8.612924E-01
-7.235215E-01
-7.244614E-01
-7.929389E-01
-6.805817E-01
-6.408372E-01
-6.138812E-01
-6.220683E-01
-6.355356E-01
-8.128358E-01
-6.988644E-01
-6.949453E-01
-6.805817E-01
-7.398965E-01
-6.291902E-01
-5.814335E-01
-5.400400E-01
-5.545648E-01
-5.813966E-01
-7.647055E-01
-6.408372E-01
-6.355356E-01
-6.291902E-01
-7.192203E-01
-5.686165E-01
-5.268073E-01
-5.567456E-01
-5.180747E-01
-4.693458E-01
-5.257632E-01
-5.814335E-01
-6.220683E-01
-5.813966E-01
-5.686165E-01
-6.594194E-01
-5.193285E-01
-4.472845E-01
-4.813664E-01
-4.447682E-01
-4.099314E-01
-4.645784E-01
-5.268073E-01
-5.567456E-01
-5.545648E-01
-5.257632E-01
-5.193285E-01
-6.138812E-01
-4.550314E-01
-4.017355E-01
-4.265315E-01
-4.448326E-01
-3.325306E-01
-4.226556E-01
-4.472845E-01
-4.813664E-01
-5.180747E-01
-4.645784E-01
-4.550314E-01
-5.400400E-01
-4.147957E-01
-3.265734E-01
-3.622378E-01
-3.782622E-01
-2.730408E-01
-2.922053E-01
-3.517668E-01
-4.017355E-01
-4.265315E-01
-4.448326E-01
-4.447682E-01
-4.226556E-01
-4.147957E-01
-4.693458E-01
-3.493709E-01
-2.622858E-01
-2.934757E-01
-3.271192E-01
-1.850462E-01
-2.120220E-01
-3.187179E-01
-3.265734E-01
-3.622378E-01
-3.782622E-01
-4.099314E-01
-3.517668E-01
-3.493709E-01
-3.038189E-01
-2.479328E-01
-1.891118E-01
-2.470079E-01
-2.646270E-01
-1.643528E-01
-1.025466E-01
-2.593183E-01
-2.622858E-01
-2.922053E-01
-2.934757E-01
-3.271192E-01
-3.325306E-01
-3.187179E-01
-3.038189E-01
-2.541161E-01
-1.649835E-01
-1.029557E-01
-1.778337E-01
-2.052293E-01
-8.193745E-02
-3.824376E-02
-2.096641E-01
-1.891118E-01
-2.479328E-01
-2.120220E-01
-2.470079E-01
-2.646270E-01
-2.730408E-01
-2.593183E-01
-2.541161E-01
-2.026529E-01
-1.413522E-01
-9.318044E-02
-4.345069E-02
-1.517573E-01
-1.850184E-01
4.497646E-02
-1.641524E-01
-1.029557E-01
-1.649835E-01
-1.643528E-01
-1.778337E-01
-2.052293E-01
-1.850462E-01
-2.096641E-01
-2.026529E-01
-1.623435E-01
-6.973705E-02
-3.378690E-02
3.740589E-02
-8.134563E-02
-1.197643E-01
1.093619E-01
8.213936E-02
-1.165198E-01
-4.345069E-02
-9.318044E-02
-1.413522E-01
-8.193745E-02
-1.517573E-01
-1.850184E-01
-1.025466E-01
-1.641524E-01
-1.623435E-01
-1.168821E-01
-3.580688E-02
3.913030E-02
9.679328E-02
-6.956351E-02
-9.677740E-02
1.981157E-01
1.627972E-01
-9.124969E-02
3.740589E-02
-3.378690E-02
-6.973705E-02
-3.824376E-02
-8.134563E-02
-1.197643E-01
-1.165198E-01
-1.168821E-01
-9.389382E-02
3.037515E-02
9.862919E-02
6.936219E-02
1.773747E-01
-2.410356E-02
-4.686300E-02
2.143880E-01
2.798615E-01
-4.730303E-02
9.679328E-02
8.213936E-02
3.913030E-02
-3.580688E-02
4.497646E-02
-6.956351E-02
-9.677740E-02
-9.124969E-02
-9.389382E-02
-5.626994E-02
7.583273E-02
1.765224E-01
1.359951E-01
2.570491E-01
2.740834E-02
-2.265877E-02
2.933662E-01
3.392641E-01
-3.531154E-02
1.773747E-01
9.862919E-02
1.627972E-01
6.936219E-02
3.037515E-02
1.093619E-01
-2.410356E-02
-4.686300E-02
-4.730303E-02
-5.626994E-02
-3.743002E-02
7.294471E-02
1.422580E-01
1.836564E-01
2.543609E-01
3.214498E-01
4.608047E-02
1.877280E-02
4.156342E-01
-1.070833E-02
2.570491E-01
1.765224E-01
2.143880E-01
1.359951E-01
7.583273E-02
1.981157E-01
2.740834E-02
-2.265877E-02
-3.531154E-02
-3.743002E-02
-1.681555E-02
1.280942E-01
2.014741E-01
2.494141E-01
2.998143E-01
3.956913E-01
8.854143E-02
4.337539E-02
4.751124E-01
4.439779E-01
1.155575E-02
3.214498E-01
2.543609E-01
1.836564E-01
2.933662E-01
1.422580E-01
7.294471E-02
2.798615E-01
4.608047E-02
1.877280E-02
-1.070833E-02
-1.681555E-02
-6.024814E-03
1.250188E-01
1.901983E-01
2.609689E-01
3.657858E-01
4.411387E-01
8.553347E-02
3.619941E-02
5.511126E-01
5.128307E-01
1.582191E-02
3.956913E-01
2.998143E-01
2.494141E-01
3.392641E-01
2.014741E-01
1.280942E-01
8.854143E-02
4.337539E-02
1.155575E-02
-6.024814E-03
4.348556E-03
1.675458E-01
2.147995E-01
3.207653E-01
4.301804E-01
3.751821E-01
5.168579E-01
1.152733E-01
6.020694E-02
5.604873E-01
6.196573E-01
2.764550E-02
4.411387E-01
4.439779E-01
3.657858E-01
2.609689E-01
4.156342E-01
1.901983E-01
1.250188E-01
8.553347E-02
3.619941E-02
1.582191E-02
4.348556E-03
4.348556E-03
1.608083E-01
2.603271E-01
3.453646E-01
4.911600E-01
4.291302E-01
5.779212E-01
9.712277E-02
4.738687E-02
6.240033E-01
6.651153E-01
1.582191E-02
5.168579E-01
4.301804E-01
5.128307E-01
3.751821E-01
3.207653E-01
4.751124E-01
2.147995E-01
1.675458E-01
1.152733E-01
6.020694E-02
2.764550E-02
4.348556E-03
-6.024814E-03
1.970545E-01
3.198200E-01
2.493196E-01
4.146292E-01
4.807136E-01
5.631815E-01
6.374100E-01
9.712277E-02
6.020694E-02
7.230057E-01
1.155575E-02
5.779212E-01
4.911600E-01
5.604873E-01
4.291302E-01
3.453646E-01
5.511126E-01
2.603271E-01
1.608083E-01
9.712277E-02
4.738687E-02
1.582191E-02
-6.024814E-03
-1.681555E-02
1.970545E-01
3.564706E-01
2.801456E-01
4.536366E-01
5.306037E-01
5.877774E-01
6.937322E-01
1.152733E-01
3.619941E-02
7.685170E-01
7.382158E-01
-1.070833E-02
6.374100E-01
5.631815E-01
4.807136E-01
6.240033E-01
4.146292E-01
3.198200E-01
6.196573E-01
2.493196E-01
1.970545E-01
9.712277E-02
6.020694E-02
1.155575E-02
-1.681555E-02
-3.743002E-02
1.608083E-01
2.493196E-01
3.278037E-01
4.210226E-01
5.180277E-01
6.367599E-01
7.183221E-01
8.553347E-02
4.337539E-02
8.201883E-01
7.847786E-01
-3.531154E-02
6.937322E-01
5.877774E-01
5.306037E-01
6.651153E-01
4.536366E-01
3.564706E-01
2.801456E-01
1.970545E-01
1.152733E-01
3.619941E-02
-1.070833E-02
-3.743002E-02
-5.626994E-02
1.675458E-01
2.603271E-01
3.564706E-01
4.210226E-01
5.623362E-01
6.962427E-01
6.238946E-01
7.776465E-01
8.854143E-02
1.877280E-02
8.212398E-01
8.650863E-01
-4.730303E-02
7.183221E-01
7.382158E-01
6.367599E-01
5.180277E-01
7.230057E-01
4.210226E-01
3.278037E-01
2.493196E-01
1.608083E-01
8.553347E-02
4.337539E-02
-3.531154E-02
-5.626994E-02
-9.389382E-02
1.250188E-01
2.147995E-01
3.198200E-01
4.536366E-01
5.623362E-01
7.310271E-01
6.569470E-01
8.108032E-01
4.608047E-02
-2.265877E-02
8.596183E-01
8.896756E-01
-9.124969E-02
7.776465E-01
6.962427E-01
7.847786E-01
6.238946E-01
5.623362E-01
7.685170E-01
4.210226E-01
3.564706E-01
2.603271E-01
1.675458E-01
8.854143E-02
1.877280E-02
-4.730303E-02
-9.389382E-02
-1.168821E-01
1.280942E-01
1.901983E-01
3.453646E-01
5.180277E-01
4.146292E-01
6.238946E-01
7.045967E-01
7.862632E-01
8.563139E-01
2.740834E-02
-4.686300E-02
9.202599E-01
-1.165198E-01
8.108032E-01
7.310271E-01
8.212398E-01
6.569470E-01
5.623362E-01
8.201883E-01
4.536366E-01
3.198200E-01
2.147995E-01
1.250188E-01
4.608047E-02
-2.265877E-02
-9.124969E-02
-1.168821E-01
-1.623435E-01
7.294471E-02
2.014741E-01
3.207653E-01
5.306037E-01
4.291302E-01
6.367599E-01
7.310271E-01
7.862632E-01
8.861386E-01
-2.410356E-02
-9.677740E-02
9.448515E-01
9.200273E-01
-1.641524E-01
8.563139E-01
7.862632E-01
7.045967E-01
8.596183E-01
6.238946E-01
5.180277E-01
8.650863E-01
4.146292E-01
3.453646E-01
1.901983E-01
1.280942E-01
2.740834E-02
-4.686300E-02
-1.165198E-01
-1.623435E-01
-2.026529E-01
7.583273E-02
2.609689E-01
1.422580E-01
3.751821E-01
4.807136E-01
5.877774E-01
6.962427E-01
8.108032E-01
8.861386E-01
-6.956351E-02
-1.197643E-01
9.643026E-01
9.372110E-01
-2.096641E-01
8.861386E-01
7.862632E-01
7.310271E-01
8.896756E-01
6.367599E-01
5.306037E-01
4.291302E-01
3.207653E-01
2.014741E-01
7.294471E-02
-2.410356E-02
-9.677740E-02
-1.641524E-01
-2.026529E-01
-2.541161E-01
3.037515E-02
2.494141E-01
1.359951E-01
3.657858E-01
4.911600E-01
5.631815E-01
7.183221E-01
8.563139E-01
7.776465E-01
9.200273E-01
-8.134563E-02
-1.850184E-01
9.568946E-01
9.786101E-01
-2.593183E-01
8.861386E-01
9.200273E-01
8.108032E-01
6.962427E-01
9.202599E-01
5.877774E-01
4.807136E-01
3.751821E-01
2.609689E-01
1.422580E-01
7.583273E-02
-6.956351E-02
-1.197643E-01
-2.096641E-01
-2.541161E-01
-3.038189E-01
6.936219E-02
-3.580688E-02
1.836564E-01
2.998143E-01
4.301804E-01
5.779212E-01
6.937322E-01
8.596183E-01
7.847786E-01
9.202599E-01
-1.517573E-01
-2.052293E-01
9.643026E-01
9.786101E-01
-3.187179E-01
9.200273E-01
8.563139E-01
9.372110E-01
7.776465E-01
7.183221E-01
9.448515E-01
5.631815E-01
4.911600E-01
3.657858E-01
2.494141E-01
1.359951E-01
3.037515E-02
-8.134563E-02
-1.850184E-01
-2.593183E-01
-3.038189E-01
-3.493709E-01
3.913030E-02
-6.973705E-02
1.765224E-01
2.543609E-01
4.411387E-01
6.374100E-01
5.168579E-01
7.382158E-01
8.212398E-01
8.896756E-01
9.448515E-01
-1.778337E-01
-2.646270E-01
-3.517668E-01
9.202599E-01
8.596183E-01
9.568946E-01
7.847786E-01
6.937322E-01
9.643026E-01
5.779212E-01
4.301804E-01
2.998143E-01
1.836564E-01
6.936219E-02
-3.580688E-02
-1.517573E-01
-2.052293E-01
-3.187179E-01
-3.493709E-01
-4.147957E-01
9.862919E-02
-3.378690E-02
-1.413522E-01
2.570491E-01
3.956913E-01
6.240033E-01
5.128307E-01
7.230057E-01
8.201883E-01
8.650863E-01
-2.470079E-01
-3.271192E-01
-4.226556E-01
9.448515E-01
8.896756E-01
8.212398E-01
9.643026E-01
7.382158E-01
6.374100E-01
9.786101E-01
5.168579E-01
4.411387E-01
2.543609E-01
1.765224E-01
3.913030E-02
-6.973705E-02
-1.778337E-01
-2.646270E-01
-3.517668E-01
-4.147957E-01
-4.550314E-01
9.679328E-02
-9.318044E-02
-1.649835E-01
3.214498E-01
1.773747E-01
4.439779E-01
5.604873E-01
6.651153E-01
7.685170E-01
-2.934757E-01
-3.782622E-01
-4.645784E-01
8.650863E-01
8.201883E-01
9.786101E-01
7.230057E-01
6.240033E-01
5.128307E-01
3.956913E-01
2.570491E-01
9.862919E-02
-3.378690E-02
-1.413522E-01
-2.470079E-01
-3.271192E-01
-4.226556E-01
-4.550314E-01
-5.193285E-01
3.740589E-02
-1.029557E-01
-2.479328E-01
2.933662E-01
1.627972E-01
4.156342E-01
5.511126E-01
6.196573E-01
-3.622378E-01
-4.448326E-01
-5.257632E-01
7.685170E-01
6.651153E-01
5.604873E-01
4.439779E-01
3.214498E-01
1.773747E-01
9.679328E-02
-9.318044E-02
-1.649835E-01
-2.934757E-01
-3.782622E-01
-4.645784E-01
-5.193285E-01
-5.686165E-01
8.213936E-02
-4.345069E-02
-1.891118E-01
-2.622858E-01
2.143880E-01
3.392641E-01
4.751124E-01
-4.265315E-01
-4.813664E-01
-5.813966E-01
6.196573E-01
5.511126E-01
4.156342E-01
2.933662E-01
1.627972E-01
3.740589E-02
-1.029557E-01
-2.479328E-01
-3.622378E-01
-4.448326E-01
-5.257632E-01
-5.686165E-01
-6.291902E-01
4.497646E-02
-8.193745E-02
-2.120220E-01
-3.265734E-01
1.981157E-01
2.798615E-01
-4.472845E-01
-5.567456E-01
-6.355356E-01
4.751124E-01
3.392641E-01
2.143880E-01
8.213936E-02
-4.345069E-02
-1.891118E-01
-2.622858E-01
-4.265315E-01
-4.813664E-01
-5.813966E-01
-6.291902E-01
-6.805817E-01
1.093619E-01
-3.824376E-02
-1.643528E-01
-2.922053E-01
-4.017355E-01
-5.268073E-01
-5.814335E-01
-6.949453E-01
2.798615E-01
1.981157E-01
4.497646E-02
-8.193745E-02
-2.120220E-01
-3.265734E-01
-4.472845E-01
-5.567456E-01
-6.355356E-01
-6.805817E-01
-7.244614E-01
-1.025466E-01
-1.850462E-01
-3.325306E-01
-4.447682E-01
-5.545648E-01
-6.408372E-01
-7.235215E-01
1.093619E-01
-3.824376E-02
-1.643528E-01
-2.922053E-01
-4.017355E-01
-5.268073E-01
-5.814335E-01
-6.949453E-01
-7.244614E-01
-7.807980E-01
-2.730408E-01
-4.099314E-01
-5.180747E-01
-6.220683E-01
-6.988644E-01
-7.843094E-01
-1.025466E-01
-1.850462E-01
-3.325306E-01
-4.447682E-01
-5.545648E-01
-6.408372E-01
-7.235215E-01
-7.807980E-01
-8.120698E-01
-4.693458E-01
-5.400400E-01
-6.594194E-01
-7.398965E-01
-8.126949E-01
-2.730408E-01
-4.099314E-01
-5.180747E-01
-6.220683E-01
-6.988644E-01
-7.843094E-01
-8.120698E-01
-8.575554E-01
-6.138812E-01
-7.192203E-01
-7.929389E-01
-8.572492E-01
-4.693458E-01
-5.400400E-01
-6.594194E-01
-7.398965E-01
-8.126949E-01
-8.575554E-01
-8.896192E-01
-7.647055E-01
-8.128358E-01
-8.859499E-01
-6.138812E-01
-7.192203E-01
-7.929389E-01
-8.572492E-01
-8.896192E-01
-9.224232E-01
-8.612924E-01
-9.190602E-01
-7.647055E-01
-8.128358E-01
-8.859499E-01
-9.224232E-01
-9.471475E-01
-9.437173E-01
-8.612924E-01
-9.190602E-01
-9.471475E-01
-9.619730E-01
-9.437173E-01
-9.619730E-01
-9.777735E-01
-9.777735E-01
