# vtk DataFile Version 2.0
Grille
ASCII
DATASET POLYDATA
POINTS 481 float
0.000000E+00 8.750000E-01 -8.212549E-01
6.250000E-02 8.750000E-01 -8.038510E-01
1.250000E-01 8.750000E-01 -7.586680E-01
1.250000E-01 9.375000E-01 -8.038510E-01
1.250000E-01 1.000000E+00 -8.212549E-01
6.250000E-02 1.000000E+00 -8.701896E-01
0.000000E+00 1.000000E+00 -8.894357E-01
0.000000E+00 9.375000E-01 -8.701896E-01
3.750000E-02 9.125000E-01 -8.469251E-01
8.125000E-02 9.187500E-01 -8.303026E-01
8.750000E-02 9.625000E-01 -8.469251E-01
4.375000E-02 9.562500E-01 -8.703701E-01
1.875000E-01 8.750000E-01 -6.814748E-01
2.500000E-01 8.750000E-01 -5.804915E-01
2.500000E-01 9.375000E-01 -6.151368E-01
2.500000E-01 1.000000E+00 -6.283534E-01
1.875000E-01 1.000000E+00 -7.375117E-01
1.625000E-01 9.125000E-01 -7.440371E-01
2.062500E-01 9.187500E-01 -6.839807E-01
2.125000E-01 9.625000E-01 -6.908854E-01
1.687500E-01 9.562500E-01 -7.578438E-01
0.000000E+00 7.500000E-01 -6.283534E-01
6.250000E-02 7.500000E-01 -6.151368E-01
1.250000E-01 7.500000E-01 -5.804915E-01
1.250000E-01 8.125000E-01 -6.814748E-01
0.000000E+00 8.125000E-01 -7.375117E-01
3.750000E-02 7.875000E-01 -6.908854E-01
8.125000E-02 7.937500E-01 -6.839807E-01
8.750000E-02 8.375000E-01 -7.440371E-01
4.375000E-02 8.312500E-01 -7.578438E-01
1.875000E-01 7.500000E-01 -5.216373E-01
2.500000E-01 7.500000E-01 -4.441289E-01
2.500000E-01 8.125000E-01 -5.216373E-01
1.625000E-01 7.875000E-01 -6.070981E-01
2.062500E-01 7.937500E-01 -5.634197E-01
2.125000E-01 8.375000E-01 -6.070981E-01
1.687500E-01 8.312500E-01 -6.599023E-01
3.125000E-01 8.750000E-01 -4.553155E-01
3.750000E-01 8.750000E-01 -3.139116E-01
3.750000E-01 9.375000E-01 -3.327692E-01
3.750000E-01 1.000000E+00 -3.397982E-01
3.125000E-01 1.000000E+00 -4.926196E-01
2.875000E-01 9.125000E-01 -5.278620E-01
3.312500E-01 9.187500E-01 -4.335237E-01
3.375000E-01 9.625000E-01 -4.296882E-01
2.937500E-01 9.562500E-01 -5.299949E-01
4.375000E-01 8.750000E-01 -1.598080E-01
5.000000E-01 8.750000E-01 4.917077E-04
5.000000E-01 9.375000E-01 2.860475E-04
5.000000E-01 1.000000E+00 5.122168E-04
4.375000E-01 1.000000E+00 -1.727161E-01
4.125000E-01 9.125000E-01 -2.313049E-01
4.562500E-01 9.187500E-01 -1.170421E-01
4.625000E-01 9.625000E-01 -1.030546E-01
4.187500E-01 9.562500E-01 -2.214464E-01
3.125000E-01 7.500000E-01 -3.486507E-01
3.750000E-01 7.500000E-01 -2.400926E-01
3.750000E-01 8.125000E-01 -2.823380E-01
2.875000E-01 7.875000E-01 -4.308137E-01
3.312500E-01 7.937500E-01 -3.570243E-01
3.375000E-01 8.375000E-01 -3.776890E-01
2.937500E-01 8.312500E-01 -4.614407E-01
4.375000E-01 7.500000E-01 -1.225329E-01
5.000000E-01 7.500000E-01 5.444179E-04
5.000000E-01 8.125000E-01 -1.397072E-05
4.125000E-01 7.875000E-01 -1.888931E-01
4.562500E-01 7.937500E-01 -9.623006E-02
4.625000E-01 8.375000E-01 -9.074222E-02
4.187500E-01 8.312500E-01 -1.926891E-01
0.000000E+00 6.250000E-01 -3.397982E-01
6.250000E-02 6.250000E-01 -3.327692E-01
1.250000E-01 6.250000E-01 -3.139116E-01
1.250000E-01 6.875000E-01 -4.553155E-01
0.000000E+00 6.875000E-01 -4.926196E-01
3.750000E-02 6.625000E-01 -4.296882E-01
8.125000E-02 6.687500E-01 -4.335237E-01
8.750000E-02 7.125000E-01 -5.278620E-01
4.375000E-02 7.062500E-01 -5.299949E-01
1.875000E-01 6.250000E-01 -2.823380E-01
2.500000E-01 6.250000E-01 -2.400926E-01
2.500000E-01 6.875000E-01 -3.486507E-01
1.625000E-01 6.625000E-01 -3.776890E-01
2.062500E-01 6.687500E-01 -3.570243E-01
2.125000E-01 7.125000E-01 -4.308137E-01
1.687500E-01 7.062500E-01 -4.614407E-01
0.000000E+00 5.000000E-01 5.122168E-04
6.250000E-02 5.000000E-01 2.860475E-04
1.250000E-01 5.000000E-01 4.917077E-04
1.250000E-01 5.625000E-01 -1.598080E-01
0.000000E+00 5.625000E-01 -1.727161E-01
3.750000E-02 5.375000E-01 -1.030546E-01
8.125000E-02 5.437500E-01 -1.170421E-01
8.750000E-02 5.875000E-01 -2.313049E-01
4.375000E-02 5.812500E-01 -2.214464E-01
1.875000E-01 5.000000E-01 -1.397072E-05
2.500000E-01 5.000000E-01 5.444179E-04
2.500000E-01 5.625000E-01 -1.225329E-01
1.625000E-01 5.375000E-01 -9.074222E-02
2.062500E-01 5.437500E-01 -9.623006E-02
2.125000E-01 5.875000E-01 -1.888931E-01
1.687500E-01 5.812500E-01 -1.926891E-01
3.125000E-01 6.250000E-01 -1.888406E-01
3.750000E-01 6.250000E-01 -1.296507E-01
3.750000E-01 6.875000E-01 -1.888406E-01
2.875000E-01 6.625000E-01 -2.681084E-01
3.312500E-01 6.687500E-01 -2.260967E-01
3.375000E-01 7.125000E-01 -2.681084E-01
2.937500E-01 7.062500E-01 -3.225622E-01
4.375000E-01 6.250000E-01 -6.653018E-02
5.000000E-01 6.250000E-01 5.883856E-04
5.000000E-01 6.875000E-01 -2.263822E-04
4.125000E-01 6.625000E-01 -1.176468E-01
4.562500E-01 6.687500E-01 -6.068871E-02
4.625000E-01 7.125000E-01 -6.453122E-02
4.187500E-01 7.062500E-01 -1.345172E-01
3.125000E-01 5.000000E-01 -2.263822E-04
3.750000E-01 5.000000E-01 5.883856E-04
3.750000E-01 5.625000E-01 -6.653018E-02
2.875000E-01 5.375000E-01 -6.453122E-02
3.312500E-01 5.437500E-01 -6.068871E-02
3.375000E-01 5.875000E-01 -1.176468E-01
2.937500E-01 5.812500E-01 -1.345172E-01
4.375000E-01 5.000000E-01 -3.371561E-04
5.000000E-01 5.000000E-01 6.051735E-04
5.000000E-01 5.625000E-01 -3.371561E-04
4.125000E-01 5.375000E-01 -2.842649E-02
4.562500E-01 5.437500E-01 -1.584288E-02
4.625000E-01 5.875000E-01 -2.842649E-02
4.187500E-01 5.812500E-01 -5.579866E-02
5.625000E-01 8.750000E-01 1.600637E-01
6.250000E-01 8.750000E-01 3.148556E-01
6.250000E-01 9.375000E-01 3.333292E-01
6.250000E-01 1.000000E+00 3.407748E-01
5.625000E-01 1.000000E+00 1.735107E-01
5.375000E-01 9.125000E-01 1.004973E-01
5.812500E-01 9.187500E-01 2.172901E-01
5.875000E-01 9.625000E-01 2.392984E-01
5.437500E-01 9.562500E-01 1.208441E-01
6.875000E-01 8.750000E-01 4.556022E-01
7.500000E-01 8.750000E-01 5.813188E-01
7.500000E-01 9.375000E-01 6.156525E-01
7.500000E-01 1.000000E+00 6.291815E-01
6.875000E-01 1.000000E+00 4.933509E-01
6.625000E-01 9.125000E-01 4.170323E-01
7.062500E-01 9.187500E-01 5.185727E-01
7.125000E-01 9.625000E-01 5.452484E-01
6.687500E-01 9.562500E-01 4.447673E-01
5.625000E-01 7.500000E-01 1.222863E-01
6.250000E-01 7.500000E-01 2.411450E-01
6.250000E-01 8.125000E-01 2.823530E-01
5.375000E-01 7.875000E-01 8.182843E-02
5.812500E-01 7.937500E-01 1.792570E-01
5.875000E-01 8.375000E-01 2.100577E-01
5.437500E-01 8.312500E-01 1.054367E-01
6.875000E-01 7.500000E-01 3.485355E-01
7.500000E-01 7.500000E-01 4.450822E-01
7.500000E-01 8.125000E-01 5.217756E-01
6.625000E-01 7.875000E-01 3.401355E-01
7.062500E-01 7.937500E-01 4.274966E-01
7.125000E-01 8.375000E-01 4.789166E-01
6.687500E-01 8.312500E-01 3.875498E-01
8.125000E-01 8.750000E-01 6.818100E-01
8.750000E-01 8.750000E-01 7.593098E-01
8.750000E-01 9.375000E-01 8.042531E-01
8.750000E-01 1.000000E+00 8.217934E-01
8.125000E-01 1.000000E+00 7.380975E-01
7.875000E-01 9.125000E-01 6.701038E-01
8.312500E-01 9.187500E-01 7.409265E-01
8.375000E-01 9.625000E-01 7.681996E-01
7.937500E-01 9.562500E-01 7.009986E-01
9.375000E-01 8.750000E-01 8.042531E-01
1.000000E+00 8.750000E-01 8.217934E-01
1.000000E+00 9.375000E-01 8.704149E-01
1.000000E+00 1.000000E+00 8.889780E-01
9.375000E-01 1.000000E+00 8.704149E-01
9.125000E-01 9.125000E-01 8.211678E-01
9.562500E-01 9.187500E-01 8.504845E-01
9.625000E-01 9.625000E-01 8.741249E-01
9.187500E-01 9.562500E-01 8.504845E-01
8.125000E-01 7.500000E-01 5.217756E-01
8.750000E-01 7.500000E-01 5.813188E-01
8.750000E-01 8.125000E-01 6.818100E-01
7.875000E-01 7.875000E-01 5.467057E-01
8.312500E-01 7.937500E-01 6.107008E-01
8.375000E-01 8.375000E-01 6.749033E-01
7.937500E-01 8.312500E-01 6.107008E-01
9.375000E-01 7.500000E-01 6.156525E-01
1.000000E+00 7.500000E-01 6.291815E-01
1.000000E+00 8.125000E-01 7.380975E-01
9.125000E-01 7.875000E-01 6.701038E-01
9.562500E-01 7.937500E-01 7.009986E-01
9.625000E-01 8.375000E-01 7.681996E-01
9.187500E-01 8.312500E-01 7.409265E-01
5.625000E-01 6.250000E-01 6.596503E-02
6.250000E-01 6.250000E-01 1.307932E-01
6.250000E-01 6.875000E-01 1.884739E-01
5.375000E-01 6.625000E-01 5.078027E-02
5.812500E-01 6.687500E-01 1.140118E-01
5.875000E-01 7.125000E-01 1.489201E-01
5.437500E-01 7.062500E-01 7.405813E-02
6.875000E-01 6.250000E-01 1.884739E-01
7.500000E-01 6.250000E-01 2.411450E-01
7.500000E-01 6.875000E-01 3.485355E-01
6.625000E-01 6.625000E-01 2.115301E-01
7.062500E-01 6.687500E-01 2.714093E-01
7.125000E-01 7.125000E-01 3.397507E-01
6.687500E-01 7.062500E-01 2.714093E-01
5.625000E-01 5.000000E-01 -3.371561E-04
6.250000E-01 5.000000E-01 5.883856E-04
6.250000E-01 5.625000E-01 6.596503E-02
5.375000E-01 5.375000E-01 1.206605E-02
5.812500E-01 5.437500E-01 3.147352E-02
5.875000E-01 5.875000E-01 6.517884E-02
5.437500E-01 5.812500E-01 3.147352E-02
6.875000E-01 5.000000E-01 -2.263822E-04
7.500000E-01 5.000000E-01 5.444179E-04
7.500000E-01 5.625000E-01 1.222863E-01
6.625000E-01 5.375000E-01 5.078027E-02
7.062500E-01 5.437500E-01 7.405813E-02
7.125000E-01 5.875000E-01 1.489201E-01
6.687500E-01 5.812500E-01 1.140118E-01
8.125000E-01 6.250000E-01 2.823530E-01
8.750000E-01 6.250000E-01 3.148556E-01
8.750000E-01 6.875000E-01 4.556022E-01
7.875000E-01 6.625000E-01 3.401355E-01
8.312500E-01 6.687500E-01 3.875498E-01
8.375000E-01 7.125000E-01 4.789166E-01
7.937500E-01 7.062500E-01 4.274966E-01
9.375000E-01 6.250000E-01 3.333292E-01
1.000000E+00 6.250000E-01 3.407748E-01
1.000000E+00 6.875000E-01 4.933509E-01
9.125000E-01 6.625000E-01 4.170323E-01
9.562500E-01 6.687500E-01 4.447673E-01
9.625000E-01 7.125000E-01 5.452484E-01
9.187500E-01 7.062500E-01 5.185727E-01
8.125000E-01 5.000000E-01 -1.397072E-05
8.750000E-01 5.000000E-01 4.917077E-04
8.750000E-01 5.625000E-01 1.600637E-01
7.875000E-01 5.375000E-01 8.182843E-02
8.312500E-01 5.437500E-01 1.054367E-01
8.375000E-01 5.875000E-01 2.100577E-01
7.937500E-01 5.812500E-01 1.792570E-01
9.375000E-01 5.000000E-01 2.860475E-04
1.000000E+00 5.000000E-01 5.122168E-04
1.000000E+00 5.625000E-01 1.735107E-01
9.125000E-01 5.375000E-01 1.004973E-01
9.562500E-01 5.437500E-01 1.208441E-01
9.625000E-01 5.875000E-01 2.392984E-01
9.187500E-01 5.812500E-01 2.172901E-01
0.000000E+00 3.750000E-01 3.407748E-01
6.250000E-02 3.750000E-01 3.333292E-01
[...]
CELL_DATA 896
SCALARS sol float 1
LOOKUP_TABLE default
-8.240104E-01
-8.270263E-01
-8.461232E-01
-7.943166E-01
-8.491993E-01
-7.976072E-01
-8.624949E-01
-7.722035E-01
-7.685773E-01
-8.491993E-01
-7.976072E-01
-7.688520E-01
-8.766651E-01
-7.287470E-01
-7.286205E-01
-8.624949E-01
-8.270263E-01
-7.688520E-01
-7.280600E-01
-8.766651E-01
-7.109033E-01
-6.855835E-01
-7.031642E-01
-8.461232E-01
-8.240104E-01
-7.280600E-01
-7.685773E-01
-7.000150E-01
-6.633343E-01
-6.447919E-01
-6.486490E-01
-7.943166E-01
-7.031642E-01
-7.000150E-01
-7.286205E-01
-6.494917E-01
-6.265363E-01
-5.911617E-01
-6.230215E-01
-7.722035E-01
-6.486490E-01
-6.494917E-01
-7.109033E-01
-6.101401E-01
-5.744968E-01
-5.503226E-01
-5.576646E-01
-5.697423E-01
-7.287470E-01
-6.265363E-01
-6.230215E-01
-6.101401E-01
-6.633343E-01
-5.640517E-01
-5.212230E-01
-4.841009E-01
-4.971269E-01
-5.211898E-01
-6.855835E-01
-5.744968E-01
-5.697423E-01
-5.640517E-01
-6.447919E-01
-5.097287E-01
-4.722337E-01
-4.990825E-01
-4.644023E-01
-4.207020E-01
-4.712972E-01
-5.212230E-01
-5.576646E-01
-5.211898E-01
-5.097287E-01
-5.911617E-01
-4.655266E-01
-4.009169E-01
-4.314817E-01
-3.986604E-01
-3.674185E-01
-4.164262E-01
-4.722337E-01
-4.990825E-01
-4.971269E-01
-4.712972E-01
-4.655266E-01
-5.503226E-01
-4.078644E-01
-3.600682E-01
-3.823053E-01
-3.987180E-01
-2.980046E-01
-3.788295E-01
-4.009169E-01
-4.314817E-01
-4.644023E-01
-4.164262E-01
-4.078644E-01
-4.841009E-01
-3.717806E-01
-2.926619E-01
-3.246462E-01
-3.390171E-01
-2.446536E-01
-2.618401E-01
-3.152558E-01
-3.600682E-01
-3.823053E-01
-3.987180E-01
-3.986604E-01
-3.788295E-01
-3.717806E-01
-4.207020E-01
-3.131071E-01
-2.350082E-01
-2.629795E-01
-2.931516E-01
-1.657390E-01
-1.899311E-01
-2.856172E-01
-2.926619E-01
-3.246462E-01
-3.390171E-01
-3.674185E-01
-3.152558E-01
-3.131071E-01
-2.722557E-01
-2.221362E-01
-1.693850E-01
-2.213067E-01
-2.371079E-01
-1.471810E-01
-9.175281E-02
-2.323472E-01
-2.350082E-01
-2.618401E-01
-2.629795E-01
-2.931516E-01
-2.980046E-01
-2.856172E-01
-2.722557E-01
-2.276819E-01
-1.477464E-01
-9.211946E-02
-1.592707E-01
-1.838395E-01
-7.327020E-02
-3.408543E-02
-1.878168E-01
-1.693850E-01
-2.221362E-01
-1.899311E-01
-2.213067E-01
-2.371079E-01
-2.446536E-01
-2.323472E-01
-2.276819E-01
-1.815293E-01
-1.265538E-01
-8.335284E-02
-3.875478E-02
-1.358854E-01
-1.657142E-01
4.054745E-02
-1.470015E-01
-9.211946E-02
-1.477464E-01
-1.471810E-01
-1.592707E-01
-1.838395E-01
-1.657390E-01
-1.878168E-01
-1.815293E-01
-1.453794E-01
-6.232875E-02
-3.008816E-02
3.375836E-02
-7.273953E-02
-1.071938E-01
9.828899E-02
7.387582E-02
-1.042842E-01
-3.875478E-02
-8.335284E-02
-1.265538E-01
-7.327020E-02
-1.358854E-01
-1.657142E-01
-9.175281E-02
-1.470015E-01
-1.453794E-01
-1.046092E-01
-3.189987E-02
3.530482E-02
8.701759E-02
-6.217325E-02
-8.657904E-02
1.778844E-01
1.462105E-01
-8.162190E-02
3.375836E-02
-3.008816E-02
-6.232875E-02
-3.408543E-02
-7.273953E-02
-1.071938E-01
-1.042842E-01
-1.046092E-01
-8.399317E-02
2.745296E-02
8.866406E-02
6.241706E-02
1.592837E-01
-2.140439E-02
-4.181544E-02
1.924775E-01
2.511946E-01
-4.221017E-02
8.701759E-02
7.387582E-02
3.530482E-02
-3.189987E-02
4.054745E-02
-6.217325E-02
-8.657904E-02
-8.162190E-02
-8.399317E-02
-5.025178E-02
6.821971E-02
1.585194E-01
1.221740E-01
2.307365E-01
2.479206E-02
-2.010890E-02
2.633059E-01
3.044674E-01
-3.145610E-02
1.592837E-01
8.866406E-02
1.462105E-01
6.241706E-02
2.745296E-02
9.828899E-02
-2.140439E-02
-4.181544E-02
-4.221017E-02
-5.025178E-02
-3.335601E-02
6.562961E-02
1.277906E-01
1.649171E-01
2.283257E-01
2.884916E-01
4.153734E-02
1.704743E-02
3.729571E-01
-9.391755E-03
2.307365E-01
1.585194E-01
1.924775E-01
1.221740E-01
6.821971E-02
1.778844E-01
2.479206E-02
-2.010890E-02
-3.145610E-02
-3.335601E-02
-1.486884E-02
1.150882E-01
1.808961E-01
2.238892E-01
2.690888E-01
3.550724E-01
7.961673E-02
3.911123E-02
4.262976E-01
3.983762E-01
1.057492E-02
2.884916E-01
2.283257E-01
1.649171E-01
2.633059E-01
1.277906E-01
6.562961E-02
2.511946E-01
4.153734E-02
1.704743E-02
-9.391755E-03
-1.486884E-02
-5.191621E-03
1.123300E-01
1.707838E-01
2.342517E-01
3.282528E-01
3.958300E-01
7.691903E-02
3.267564E-02
4.944555E-01
4.601241E-01
1.440080E-02
3.550724E-01
2.690888E-01
2.238892E-01
3.044674E-01
1.808961E-01
1.150882E-01
7.961673E-02
3.911123E-02
1.057492E-02
-5.191621E-03
4.111357E-03
1.504686E-01
1.928463E-01
2.878778E-01
3.860025E-01
3.366794E-01
4.637357E-01
1.035900E-01
5.420579E-02
5.028628E-01
5.559269E-01
2.500436E-02
3.958300E-01
3.983762E-01
3.282528E-01
2.342517E-01
3.729571E-01
1.707838E-01
1.123300E-01
7.691903E-02
3.267564E-02
1.440080E-02
4.111357E-03
4.111357E-03
1.444263E-01
2.336760E-01
3.099387E-01
4.406895E-01
3.850607E-01
5.184979E-01
8.731237E-02
4.270862E-02
5.598245E-01
5.966941E-01
1.440080E-02
4.637357E-01
3.860025E-01
4.601241E-01
3.366794E-01
2.878778E-01
4.262976E-01
1.928463E-01
1.504686E-01
1.035900E-01
5.420579E-02
2.500436E-02
4.111357E-03
-5.191621E-03
1.769324E-01
2.870299E-01
2.238044E-01
3.720559E-01
4.313210E-01
5.052792E-01
5.718480E-01
8.731237E-02
5.420579E-02
6.486109E-01
1.057492E-02
5.184979E-01
4.406895E-01
5.028628E-01
3.850607E-01
3.099387E-01
4.944555E-01
2.336760E-01
1.444263E-01
8.731237E-02
4.270862E-02
1.440080E-02
-5.191621E-03
-1.486884E-02
1.769324E-01
3.198985E-01
2.514495E-01
4.070381E-01
4.760629E-01
5.273370E-01
6.223583E-01
1.035900E-01
3.267564E-02
6.894259E-01
6.622516E-01
-9.391755E-03
5.718480E-01
5.052792E-01
4.313210E-01
5.598245E-01
3.720559E-01
2.870299E-01
5.559269E-01
2.238044E-01
1.769324E-01
8.731237E-02
5.420579E-02
1.057492E-02
-1.486884E-02
-3.335601E-02
1.444263E-01
2.238044E-01
2.941897E-01
3.777895E-01
4.647848E-01
5.712651E-01
6.444109E-01
7.691903E-02
3.911123E-02
7.357652E-01
7.040096E-01
-3.145610E-02
6.223583E-01
5.273370E-01
4.760629E-01
5.966941E-01
4.070381E-01
3.198985E-01
2.514495E-01
1.769324E-01
1.035900E-01
3.267564E-02
-9.391755E-03
-3.335601E-02
-5.025178E-02
1.504686E-01
2.336760E-01
3.198985E-01
3.777895E-01
5.045211E-01
6.246099E-01
5.597274E-01
6.976134E-01
7.961673E-02
1.704743E-02
7.367082E-01
7.760301E-01
-4.221017E-02
6.444109E-01
6.622516E-01
5.712651E-01
4.647848E-01
6.486109E-01
3.777895E-01
2.941897E-01
2.238044E-01
1.444263E-01
7.691903E-02
3.911123E-02
-3.145610E-02
-5.025178E-02
-8.399317E-02
1.123300E-01
1.928463E-01
2.870299E-01
4.070381E-01
5.045211E-01
6.558047E-01
5.893691E-01
7.273488E-01
4.153734E-02
-2.010890E-02
7.711264E-01
7.980820E-01
-8.162190E-02
6.976134E-01
6.246099E-01
7.040096E-01
5.597274E-01
5.045211E-01
6.894259E-01
3.777895E-01
3.198985E-01
2.336760E-01
1.504686E-01
7.961673E-02
1.704743E-02
-4.221017E-02
-8.399317E-02
-1.046092E-01
1.150882E-01
1.707838E-01
3.099387E-01
4.647848E-01
3.720559E-01
5.597274E-01
6.321017E-01
7.053410E-01
7.681631E-01
2.479206E-02
-4.181544E-02
8.255103E-01
-1.042842E-01
7.273488E-01
6.558047E-01
7.367082E-01
5.893691E-01
5.045211E-01
7.357652E-01
4.070381E-01
2.870299E-01
1.928463E-01
1.123300E-01
4.153734E-02
-2.010890E-02
-8.162190E-02
-1.046092E-01
-1.453794E-01
6.562961E-02
1.808961E-01
2.878778E-01
4.760629E-01
3.850607E-01
5.712651E-01
6.558047E-01
7.053410E-01
7.949102E-01
-2.140439E-02
-8.657904E-02
8.475643E-01
8.253018E-01
-1.470015E-01
7.681631E-01
7.053410E-01
6.321017E-01
7.711264E-01
5.597274E-01
4.647848E-01
7.760301E-01
3.720559E-01
3.099387E-01
1.707838E-01
1.150882E-01
2.479206E-02
-4.181544E-02
-1.042842E-01
-1.453794E-01
-1.815293E-01
6.821971E-02
2.342517E-01
1.277906E-01
3.366794E-01
4.313210E-01
5.273370E-01
6.246099E-01
7.273488E-01
7.949102E-01
-6.217325E-02
-1.071938E-01
8.650081E-01
8.407122E-01
-1.878168E-01
7.949102E-01
7.053410E-01
6.558047E-01
7.980820E-01
5.712651E-01
4.760629E-01
3.850607E-01
2.878778E-01
1.808961E-01
6.562961E-02
-2.140439E-02
-8.657904E-02
-1.470015E-01
-1.815293E-01
-2.276819E-01
2.745296E-02
2.238892E-01
1.221740E-01
3.282528E-01
4.406895E-01
5.052792E-01
6.444109E-01
7.681631E-01
6.976134E-01
8.253018E-01
-7.273953E-02
-1.657142E-01
8.583646E-01
8.778393E-01
-2.323472E-01
7.949102E-01
8.253018E-01
7.273488E-01
6.246099E-01
8.255103E-01
5.273370E-01
4.313210E-01
3.366794E-01
2.342517E-01
1.277906E-01
6.821971E-02
-6.217325E-02
-1.071938E-01
-1.878168E-01
-2.276819E-01
-2.722557E-01
6.241706E-02
-3.189987E-02
1.649171E-01
2.690888E-01
3.860025E-01
5.184979E-01
6.223583E-01
7.711264E-01
7.040096E-01
8.255103E-01
-1.358854E-01
-1.838395E-01
8.650081E-01
8.778393E-01
-2.856172E-01
8.253018E-01
7.681631E-01
8.407122E-01
6.976134E-01
6.444109E-01
8.475643E-01
5.052792E-01
4.406895E-01
3.282528E-01
2.238892E-01
1.221740E-01
2.745296E-02
-7.273953E-02
-1.657142E-01
-2.323472E-01
-2.722557E-01
-3.131071E-01
3.530482E-02
-6.232875E-02
1.585194E-01
2.283257E-01
3.958300E-01
5.718480E-01
4.637357E-01
6.622516E-01
7.367082E-01
7.980820E-01
8.475643E-01
-1.592707E-01
-2.371079E-01
-3.152558E-01
8.255103E-01
7.711264E-01
8.583646E-01
7.040096E-01
6.223583E-01
8.650081E-01
5.184979E-01
3.860025E-01
2.690888E-01
1.649171E-01
6.241706E-02
-3.189987E-02
-1.358854E-01
-1.838395E-01
-2.856172E-01
-3.131071E-01
-3.717806E-01
8.866406E-02
-3.008816E-02
-1.265538E-01
2.307365E-01
3.550724E-01
5.598245E-01
4.601241E-01
6.486109E-01
7.357652E-01
7.760301E-01
-2.213067E-01
-2.931516E-01
-3.788295E-01
8.475643E-01
7.980820E-01
7.367082E-01
8.650081E-01
6.622516E-01
5.718480E-01
8.778393E-01
4.637357E-01
3.958300E-01
2.283257E-01
1.585194E-01
3.530482E-02
-6.232875E-02
-1.592707E-01
-2.371079E-01
-3.152558E-01
-3.717806E-01
-4.078644E-01
8.701759E-02
-8.335284E-02
-1.477464E-01
2.884916E-01
1.592837E-01
3.983762E-01
5.028628E-01
5.966941E-01
6.894259E-01
-2.629795E-01
-3.390171E-01
-4.164262E-01
7.760301E-01
7.357652E-01
8.778393E-01
6.486109E-01
5.598245E-01
4.601241E-01
3.550724E-01
2.307365E-01
8.866406E-02
-3.008816E-02
-1.265538E-01
-2.213067E-01
-2.931516E-01
-3.788295E-01
-4.078644E-01
-4.655266E-01
3.375836E-02
-9.211946E-02
-2.221362E-01
2.633059E-01
1.462105E-01
3.729571E-01
4.944555E-01
5.559269E-01
-3.246462E-01
-3.987180E-01
-4.712972E-01
6.894259E-01
5.966941E-01
5.028628E-01
3.983762E-01
2.884916E-01
1.592837E-01
8.701759E-02
-8.335284E-02
-1.477464E-01
-2.629795E-01
-3.390171E-01
-4.164262E-01
-4.655266E-01
-5.097287E-01
7.387582E-02
-3.875478E-02
-1.693850E-01
-2.350082E-01
1.924775E-01
3.044674E-01
4.262976E-01
-3.823053E-01
-4.314817E-01
-5.211898E-01
5.559269E-01
4.944555E-01
3.729571E-01
2.633059E-01
1.462105E-01
3.375836E-02
-9.211946E-02
-2.221362E-01
-3.246462E-01
-3.987180E-01
-4.712972E-01
-5.097287E-01
-5.640517E-01
4.054745E-02
-7.327020E-02
-1.899311E-01
-2.926619E-01
1.778844E-01
2.511946E-01
-4.009169E-01
-4.990825E-01
-5.697423E-01
4.262976E-01
3.044674E-01
1.924775E-01
7.387582E-02
-3.875478E-02
-1.693850E-01
-2.350082E-01
-3.823053E-01
-4.314817E-01
-5.211898E-01
-5.640517E-01
-6.101401E-01
9.828899E-02
-3.408543E-02
-1.471810E-01
-2.618401E-01
-3.600682E-01
-4.722337E-01
-5.212230E-01
-6.230215E-01
2.511946E-01
1.778844E-01
4.054745E-02
-7.327020E-02
-1.899311E-01
-2.926619E-01
-4.009169E-01
-4.990825E-01
-5.697423E-01
-6.101401E-01
-6.494917E-01
-9.175281E-02
-1.657390E-01
-2.980046E-01
-3.986604E-01
-4.971269E-01
-5.744968E-01
-6.486490E-01
9.828899E-02
-3.408543E-02
-1.471810E-01
-2.618401E-01
-3.600682E-01
-4.722337E-01
-5.212230E-01
-6.230215E-01
-6.494917E-01
-7.000150E-01
-2.446536E-01
-3.674185E-01
-4.644023E-01
-5.576646E-01
-6.265363E-01
-7.031642E-01
-9.175281E-02
-1.657390E-01
-2.980046E-01
-3.986604E-01
-4.971269E-01
-5.744968E-01
-6.486490E-01
-7.000150E-01
-7.280600E-01
-4.207020E-01
-4.841009E-01
-5.911617E-01
-6.633343E-01
-7.286205E-01
-2.446536E-01
-3.674185E-01
-4.644023E-01
-5.576646E-01
-6.265363E-01
-7.031642E-01
-7.280600E-01
-7.688520E-01
-5.503226E-01
-6.447919E-01
-7.109033E-01
-7.685773E-01
-4.207020E-01
-4.841009E-01
-5.911617E-01
-6.633343E-01
-7.286205E-01
-7.688520E-01
-7.976072E-01
-6.855835E-01
-7.287470E-01
-7.943166E-01
-5.503226E-01
-6.447919E-01
-7.109033E-01
-7.685773E-01
-7.976072E-01
-8.270263E-01
-7.722035E-01
-8.240104E-01
-6.855835E-01
-7.287470E-01
-7.943166E-01
-8.270263E-01
-8.491993E-01
-8.461232E-01
-7.722035E-01
-8.240104E-01
-8.491993E-01
-8.624949E-01
-8.461232E-01
-8.624949E-01
-8.766651E-01
-8.766651E-01
