# vtk DataFile Version 2.0
Grille
ASCII
DATASET POLYDATA
POINTS 481 float
0.000000E+00 8.750000E-01 -7.817600E-01
6.250000E-02 8.750000E-01 -7.651917E-01
1.250000E-01 8.750000E-01 -7.221784E-01
1.250000E-01 9.375000E-01 -7.651917E-01
1.250000E-01 1.000000E+00 -7.817600E-01
6.250000E-02 1.000000E+00 -8.283447E-01
0.000000E+00 1.000000E+00 -8.466667E-01
0.000000E+00 9.375000E-01 -8.283447E-01
3.750000E-02 9.125000E-01 -8.061974E-01
8.125000E-02 9.187500E-01 -7.903731E-01
8.750000E-02 9.625000E-01 -8.061974E-01
4.375000E-02 9.562500E-01 -8.285165E-01
1.875000E-01 8.750000E-01 -6.486919E-01
2.500000E-01 8.750000E-01 -5.525578E-01
2.500000E-01 9.375000E-01 -5.855395E-01
2.500000E-01 1.000000E+00 -5.981216E-01
1.875000E-01 1.000000E+00 -7.020380E-01
1.625000E-01 9.125000E-01 -7.082499E-01
2.062500E-01 9.187500E-01 -6.510776E-01
2.125000E-01 9.625000E-01 -6.576507E-01
1.687500E-01 9.562500E-01 -7.213937E-01
0.000000E+00 7.500000E-01 -5.981216E-01
6.250000E-02 7.500000E-01 -5.855395E-01
1.250000E-01 7.500000E-01 -5.525578E-01
1.250000E-01 8.125000E-01 -6.486919E-01
0.000000E+00 8.125000E-01 -7.020380E-01
3.750000E-02 7.875000E-01 -6.576507E-01
8.125000E-02 7.937500E-01 -6.510776E-01
8.750000E-02 8.375000E-01 -7.082499E-01
4.375000E-02 8.312500E-01 -7.213937E-01
1.875000E-01 7.500000E-01 -4.965298E-01
2.500000E-01 7.500000E-01 -4.227434E-01
2.500000E-01 8.125000E-01 -4.965298E-01
1.625000E-01 7.875000E-01 -5.778868E-01
2.062500E-01 7.937500E-01 -5.363059E-01
2.125000E-01 8.375000E-01 -5.778868E-01
1.687500E-01 8.312500E-01 -6.281552E-01
3.125000E-01 8.750000E-01 -4.333927E-01
3.750000E-01 8.750000E-01 -2.987791E-01
3.750000E-01 9.375000E-01 -3.167312E-01
3.750000E-01 1.000000E+00 -3.234229E-01
3.125000E-01 1.000000E+00 -4.689055E-01
2.875000E-01 9.125000E-01 -5.024556E-01
3.312500E-01 9.187500E-01 -4.126475E-01
3.375000E-01 9.625000E-01 -4.089962E-01
2.937500E-01 9.562500E-01 -5.044860E-01
4.375000E-01 8.750000E-01 -1.520756E-01
5.000000E-01 8.750000E-01 5.265457E-04
5.000000E-01 9.375000E-01 3.307241E-04
5.000000E-01 1.000000E+00 5.458311E-04
4.375000E-01 1.000000E+00 -1.643638E-01
4.125000E-01 9.125000E-01 -2.201391E-01
4.562500E-01 9.187500E-01 -1.113634E-01
4.625000E-01 9.625000E-01 -9.804753E-02
4.187500E-01 9.562500E-01 -2.107540E-01
3.125000E-01 7.500000E-01 -3.318501E-01
3.750000E-01 7.500000E-01 -2.285049E-01
3.750000E-01 8.125000E-01 -2.687217E-01
2.875000E-01 7.875000E-01 -4.100675E-01
3.312500E-01 7.937500E-01 -3.398216E-01
3.375000E-01 8.375000E-01 -3.594939E-01
2.937500E-01 8.312500E-01 -4.392237E-01
4.375000E-01 7.500000E-01 -1.165905E-01
5.000000E-01 7.500000E-01 5.766520E-04
5.000000E-01 8.125000E-01 4.511156E-05
4.125000E-01 7.875000E-01 -1.797640E-01
4.562500E-01 7.937500E-01 -9.155074E-02
4.625000E-01 8.375000E-01 -8.632637E-02
4.187500E-01 8.312500E-01 -1.833776E-01
0.000000E+00 6.250000E-01 -3.234229E-01
6.250000E-02 6.250000E-01 -3.167312E-01
1.250000E-01 6.250000E-01 -2.987791E-01
1.250000E-01 6.875000E-01 -4.333927E-01
0.000000E+00 6.875000E-01 -4.689055E-01
3.750000E-02 6.625000E-01 -4.089962E-01
8.125000E-02 6.687500E-01 -4.126475E-01
8.750000E-02 7.125000E-01 -5.024556E-01
4.375000E-02 7.062500E-01 -5.044860E-01
1.875000E-01 6.250000E-01 -2.687217E-01
2.500000E-01 6.250000E-01 -2.285049E-01
2.500000E-01 6.875000E-01 -3.318501E-01
1.625000E-01 6.625000E-01 -3.594939E-01
2.062500E-01 6.687500E-01 -3.398216E-01
2.125000E-01 7.125000E-01 -4.100675E-01
1.687500E-01 7.062500E-01 -4.392237E-01
0.000000E+00 5.000000E-01 5.458311E-04
6.250000E-02 5.000000E-01 3.307241E-04
1.250000E-01 5.000000E-01 5.265457E-04
1.250000E-01 5.625000E-01 -1.520756E-01
0.000000E+00 5.625000E-01 -1.643638E-01
3.750000E-02 5.375000E-01 -9.804753E-02
8.125000E-02 5.437500E-01 -1.113634E-01
8.750000E-02 5.875000E-01 -2.201391E-01
4.375000E-02 5.812500E-01 -2.107540E-01
1.875000E-01 5.000000E-01 4.511156E-05
2.500000E-01 5.000000E-01 5.766520E-04
2.500000E-01 5.625000E-01 -1.165905E-01
1.625000E-01 5.375000E-01 -8.632637E-02
2.062500E-01 5.437500E-01 -9.155074E-02
2.125000E-01 5.875000E-01 -1.797640E-01
1.687500E-01 5.812500E-01 -1.833776E-01
3.125000E-01 6.250000E-01 -1.797141E-01
3.750000E-01 6.250000E-01 -1.233665E-01
3.750000E-01 6.875000E-01 -1.797141E-01
2.875000E-01 6.625000E-01 -2.551754E-01
3.312500E-01 6.687500E-01 -2.151812E-01
3.375000E-01 7.125000E-01 -2.551754E-01
2.937500E-01 7.062500E-01 -3.070142E-01
4.375000E-01 6.250000E-01 -6.327714E-02
5.000000E-01 6.250000E-01 6.184044E-04
5.000000E-01 6.875000E-01 -1.572112E-04
4.125000E-01 6.625000E-01 -1.119391E-01
4.562500E-01 6.687500E-01 -5.771618E-02
4.625000E-01 7.125000E-01 -6.137411E-02
4.187500E-01 7.062500E-01 -1.279993E-01
3.125000E-01 5.000000E-01 -1.572112E-04
3.750000E-01 5.000000E-01 6.184044E-04
3.750000E-01 5.625000E-01 -6.327714E-02
2.875000E-01 5.375000E-01 -6.137411E-02
3.312500E-01 5.437500E-01 -5.771618E-02
3.375000E-01 5.875000E-01 -1.119391E-01
2.937500E-01 5.812500E-01 -1.279993E-01
4.375000E-01 5.000000E-01 -2.627503E-04
5.000000E-01 5.000000E-01 6.343422E-04
5.000000E-01 5.625000E-01 -2.627503E-04
4.125000E-01 5.375000E-01 -2.700321E-02
4.562500E-01 5.437500E-01 -1.502390E-02
4.625000E-01 5.875000E-01 -2.700321E-02
4.187500E-01 5.812500E-01 -5.306091E-02
5.625000E-01 8.750000E-01 1.524359E-01
6.250000E-01 8.750000E-01 2.997947E-01
6.250000E-01 9.375000E-01 3.173811E-01
6.250000E-01 1.000000E+00 3.244690E-01
5.625000E-01 1.000000E+00 1.652371E-01
5.375000E-01 9.125000E-01 9.572992E-02
5.812500E-01 9.187500E-01 2.069142E-01
5.875000E-01 9.625000E-01 2.278656E-01
5.437500E-01 9.562500E-01 1.150996E-01
6.875000E-01 8.750000E-01 4.337826E-01
7.500000E-01 8.750000E-01 5.534623E-01
7.500000E-01 9.375000E-01 5.861472E-01
7.500000E-01 1.000000E+00 5.990265E-01
6.875000E-01 1.000000E+00 4.697185E-01
6.625000E-01 9.125000E-01 3.970648E-01
7.062500E-01 9.187500E-01 4.937291E-01
7.125000E-01 9.625000E-01 5.191239E-01
6.687500E-01 9.562500E-01 4.234680E-01
5.625000E-01 7.500000E-01 1.164724E-01
6.250000E-01 7.500000E-01 2.296236E-01
6.250000E-01 8.125000E-01 2.688528E-01
5.375000E-01 7.875000E-01 7.795746E-02
5.812500E-01 7.937500E-01 1.707074E-01
5.875000E-01 8.375000E-01 2.000291E-01
5.437500E-01 8.312500E-01 1.004321E-01
6.875000E-01 7.500000E-01 3.318572E-01
7.500000E-01 7.500000E-01 4.237678E-01
7.500000E-01 8.125000E-01 4.967783E-01
6.625000E-01 7.875000E-01 3.238607E-01
7.062500E-01 7.937500E-01 4.070266E-01
7.125000E-01 8.375000E-01 4.559774E-01
6.687500E-01 8.312500E-01 3.689981E-01
8.125000E-01 8.750000E-01 6.491279E-01
8.750000E-01 8.750000E-01 7.229061E-01
8.750000E-01 9.375000E-01 7.656912E-01
8.750000E-01 1.000000E+00 7.823891E-01
8.125000E-01 1.000000E+00 7.027124E-01
7.875000E-01 9.125000E-01 6.379838E-01
8.312500E-01 9.187500E-01 7.054055E-01
8.375000E-01 9.625000E-01 7.313689E-01
7.937500E-01 9.562500E-01 6.673950E-01
9.375000E-01 8.750000E-01 7.656912E-01
1.000000E+00 8.750000E-01 7.823891E-01
1.000000E+00 9.375000E-01 8.286758E-01
1.000000E+00 1.000000E+00 8.463476E-01
9.375000E-01 1.000000E+00 8.286758E-01
9.125000E-01 9.125000E-01 7.817936E-01
9.562500E-01 9.187500E-01 8.097025E-01
9.625000E-01 9.625000E-01 8.322076E-01
9.187500E-01 9.562500E-01 8.097025E-01
8.125000E-01 7.500000E-01 4.967783E-01
8.750000E-01 7.500000E-01 5.534623E-01
8.750000E-01 8.125000E-01 6.491279E-01
7.875000E-01 7.875000E-01 5.205113E-01
8.312500E-01 7.937500E-01 5.814334E-01
8.375000E-01 8.375000E-01 6.425528E-01
7.937500E-01 8.312500E-01 5.814334E-01
9.375000E-01 7.500000E-01 5.861472E-01
1.000000E+00 7.500000E-01 5.990265E-01
1.000000E+00 8.125000E-01 7.027124E-01
9.125000E-01 7.875000E-01 6.379838E-01
9.562500E-01 7.937500E-01 6.673950E-01
9.625000E-01 8.375000E-01 7.313689E-01
9.187500E-01 8.312500E-01 7.054055E-01
5.625000E-01 6.250000E-01 6.285564E-02
6.250000E-01 6.250000E-01 1.245709E-01
6.250000E-01 6.875000E-01 1.794817E-01
5.375000E-01 6.625000E-01 4.840012E-02
5.812500E-01 6.687500E-01 1.085952E-01
5.875000E-01 7.125000E-01 1.418273E-01
5.437500E-01 7.062500E-01 7.056023E-02
6.875000E-01 6.250000E-01 1.794817E-01
7.500000E-01 6.250000E-01 2.296236E-01
7.500000E-01 6.875000E-01 3.318572E-01
6.625000E-01 6.625000E-01 2.014308E-01
7.062500E-01 6.687500E-01 2.584345E-01
7.125000E-01 7.125000E-01 3.234942E-01
6.687500E-01 7.062500E-01 2.584345E-01
5.625000E-01 5.000000E-01 -2.627503E-04
6.250000E-01 5.000000E-01 6.184044E-04
6.250000E-01 5.625000E-01 6.285564E-02
5.375000E-01 5.375000E-01 1.154488E-02
5.812500E-01 5.437500E-01 3.002041E-02
5.875000E-01 5.875000E-01 6.210718E-02
5.437500E-01 5.812500E-01 3.002041E-02
6.875000E-01 5.000000E-01 -1.572112E-04
7.500000E-01 5.000000E-01 5.766520E-04
7.500000E-01 5.625000E-01 1.164724E-01
6.625000E-01 5.375000E-01 4.840012E-02
7.062500E-01 5.437500E-01 7.056023E-02
7.125000E-01 5.875000E-01 1.418273E-01
6.687500E-01 5.812500E-01 1.085952E-01
8.125000E-01 6.250000E-01 2.688528E-01
8.750000E-01 6.250000E-01 2.997947E-01
8.750000E-01 6.875000E-01 4.337826E-01
7.875000E-01 6.625000E-01 3.238607E-01
8.312500E-01 6.687500E-01 3.689981E-01
8.375000E-01 7.125000E-01 4.559774E-01
7.937500E-01 7.062500E-01 4.070266E-01
9.375000E-01 6.250000E-01 3.173811E-01
1.000000E+00 6.250000E-01 3.244690E-01
1.000000E+00 6.875000E-01 4.697185E-01
9.125000E-01 6.625000E-01 3.970648E-01
9.562500E-01 6.687500E-01 4.234680E-01
9.625000E-01 7.125000E-01 5.191239E-01
9.187500E-01 7.062500E-01 4.937291E-01
8.125000E-01 5.000000E-01 4.511156E-05
8.750000E-01 5.000000E-01 5.265457E-04
8.750000E-01 5.625000E-01 1.524359E-01
7.875000E-01 5.375000E-01 7.795746E-02
8.312500E-01 5.437500E-01 1.004321E-01
8.375000E-01 5.875000E-01 2.000291E-01
7.937500E-01 5.812500E-01 1.707074E-01
9.375000E-01 5.000000E-01 3.307241E-04
1.000000E+00 5.000000E-01 5.458311E-04
1.000000E+00 5.625000E-01 1.652371E-01
9.125000E-01 5.375000E-01 9.572992E-02
9.562500E-01 5.437500E-01 1.150996E-01
9.625000E-01 5.875000E-01 2.278656E-01
9.187500E-01 5.812500E-01 2.069142E-01
0.000000E+00 3.750000E-01 3.244690E-01
6.250000E-02 3.750000E-01 3.173811E-01
[...]
CELL_DATA 896
SCALARS sol float 1
LOOKUP_TABLE default
-7.843830E-01
-7.872541E-01
-8.054340E-01
-7.561151E-01
-8.083623E-01
-7.592477E-01
-8.210195E-01
-7.350639E-01
-7.316118E-01
-8.083623E-01
-7.592477E-01
-7.318733E-01
-8.345093E-01
-6.936941E-01
-6.935737E-01
-8.210195E-01
-7.872541E-01
-7.318733E-01
-6.930401E-01
-8.345093E-01
-6.767073E-01
-6.526034E-01
-6.693398E-01
-8.054340E-01
-7.843830E-01
-6.930401E-01
-7.316118E-01
-6.663418E-01
-6.314226E-01
-6.137706E-01
-6.174424E-01
-7.561151E-01
-6.693398E-01
-6.663418E-01
-6.935737E-01
-6.182446E-01
-5.963916E-01
-5.627157E-01
-5.930455E-01
-7.350639E-01
-6.174424E-01
-6.182446E-01
-6.767073E-01
-5.807826E-01
-5.468510E-01
-5.238377E-01
-5.308271E-01
-5.423248E-01
-6.936941E-01
-5.963916E-01
-5.930455E-01
-5.807826E-01
-6.314226E-01
-5.369075E-01
-4.961354E-01
-4.607959E-01
-4.731964E-01
-4.961038E-01
-6.526034E-01
-5.468510E-01
-5.423248E-01
-5.369075E-01
-6.137706E-01
-4.851930E-01
-4.494986E-01
-4.750581E-01
-4.420432E-01
-4.004415E-01
-4.486070E-01
-4.961354E-01
-5.308271E-01
-4.961038E-01
-4.851930E-01
-5.627157E-01
-4.431136E-01
-3.816064E-01
-4.107035E-01
-3.794583E-01
-3.497168E-01
-3.963709E-01
-4.494986E-01
-4.750581E-01
-4.731964E-01
-4.486070E-01
-4.431136E-01
-5.238377E-01
-3.882203E-01
-3.427193E-01
-3.638886E-01
-3.795131E-01
-2.836360E-01
-3.605797E-01
-3.816064E-01
-4.107035E-01
-4.420432E-01
-3.963709E-01
-3.882203E-01
-4.607959E-01
-3.538692E-01
-2.785498E-01
-3.089982E-01
-3.226790E-01
-2.328469E-01
-2.492081E-01
-3.000589E-01
-3.427193E-01
-3.638886E-01
-3.795131E-01
-3.794583E-01
-3.605797E-01
-3.538692E-01
-4.004415E-01
-2.980132E-01
-2.236646E-01
-2.502928E-01
-2.790161E-01
-1.577218E-01
-1.807522E-01
-2.718435E-01
-2.785498E-01
-3.089982E-01
-3.226790E-01
-3.497168E-01
-3.000589E-01
-2.980132E-01
-2.591236E-01
-2.114108E-01
-1.611927E-01
-2.106211E-01
-2.256635E-01
-1.400550E-01
-8.728852E-02
-2.211315E-01
-2.236646E-01
-2.492081E-01
-2.502928E-01
-2.790161E-01
-2.836360E-01
-2.718435E-01
-2.591236E-01
-2.166902E-01
-1.405932E-01
-8.763746E-02
-1.515641E-01
-1.749531E-01
-6.969339E-02
-3.239033E-02
-1.787394E-01
-1.611927E-01
-2.114108E-01
-1.807522E-01
-2.106211E-01
-2.256635E-01
-2.328469E-01
-2.211315E-01
-2.166902E-01
-1.727540E-01
-1.204182E-01
-7.929180E-02
-3.683536E-02
-1.293018E-01
-1.576982E-01
3.865872E-02
-1.398842E-01
-8.763746E-02
-1.405932E-01
-1.400550E-01
-1.515641E-01
-1.749531E-01
-1.577218E-01
-1.787394E-01
-1.727540E-01
-1.383399E-01
-5.927733E-02
-2.858491E-02
3.219573E-02
-6.918821E-02
-1.019880E-01
9.362751E-02
7.038675E-02
-9.921818E-02
-3.683536E-02
-7.929180E-02
-1.204182E-01
-6.969339E-02
-1.293018E-01
-1.576982E-01
-8.728852E-02
-1.398842E-01
-1.383399E-01
-9.952759E-02
-3.030966E-02
3.366793E-02
8.289745E-02
-5.912933E-02
-8.236319E-02
1.694008E-01
1.392479E-01
-7.764414E-02
3.219573E-02
-2.858491E-02
-5.927733E-02
-3.239033E-02
-6.918821E-02
-1.019880E-01
-9.921818E-02
-9.952759E-02
-7.990153E-02
2.619308E-02
8.446486E-02
5.947824E-02
1.516933E-01
-2.031822E-02
-3.974917E-02
1.832931E-01
2.391906E-01
-4.012497E-02
8.289745E-02
7.038675E-02
3.366793E-02
-3.030966E-02
3.865872E-02
-5.912933E-02
-8.236319E-02
-7.764414E-02
-7.990153E-02
-4.778042E-02
6.500219E-02
1.509657E-01
1.163657E-01
2.197149E-01
2.365989E-02
-1.908500E-02
2.507203E-01
2.899052E-01
-2.988731E-02
1.516933E-01
8.446486E-02
1.392479E-01
5.947824E-02
2.619308E-02
9.362751E-02
-2.031822E-02
-3.974917E-02
-4.012497E-02
-4.778042E-02
-3.169601E-02
6.253644E-02
1.217124E-01
1.570562E-01
2.174199E-01
2.746967E-01
3.960105E-02
1.628711E-02
3.551060E-01
-8.882519E-03
2.197149E-01
1.509657E-01
1.832931E-01
1.163657E-01
6.500219E-02
1.694008E-01
2.365989E-02
-1.908500E-02
-2.988731E-02
-3.169601E-02
-1.409662E-02
1.096200E-01
1.722678E-01
2.131964E-01
2.562256E-01
3.380802E-01
7.585186E-02
3.729139E-02
4.058852E-01
3.793046E-01
1.012535E-02
2.746967E-01
2.174199E-01
1.570562E-01
2.507203E-01
1.217124E-01
6.253644E-02
2.391906E-01
3.960105E-02
1.628711E-02
-8.882519E-03
-1.409662E-02
-4.884102E-03
1.069942E-01
1.626411E-01
2.230613E-01
3.125485E-01
3.768807E-01
7.328367E-02
3.116482E-02
4.707702E-01
4.380873E-01
1.376751E-02
3.380802E-01
2.562256E-01
2.131964E-01
2.899052E-01
1.722678E-01
1.096200E-01
7.585186E-02
3.729139E-02
1.012535E-02
-4.884102E-03
3.972157E-03
1.433014E-01
1.836442E-01
2.741124E-01
3.675251E-01
3.205705E-01
4.415255E-01
9.867391E-02
5.166108E-02
4.787737E-01
5.292896E-01
2.386190E-02
3.768807E-01
3.793046E-01
3.125485E-01
2.230613E-01
3.551060E-01
1.626411E-01
1.069942E-01
7.328367E-02
3.116482E-02
1.376751E-02
3.972157E-03
3.972157E-03
1.375493E-01
2.225133E-01
2.951138E-01
4.195860E-01
3.666285E-01
4.936580E-01
8.317789E-02
4.071600E-02
5.330001E-01
5.680992E-01
1.376751E-02
4.415255E-01
3.675251E-01
4.380873E-01
3.205705E-01
2.741124E-01
4.058852E-01
1.836442E-01
1.433014E-01
9.867391E-02
5.166108E-02
2.386190E-02
3.972157E-03
-4.884102E-03
1.684944E-01
2.733051E-01
2.131157E-01
3.542482E-01
4.106674E-01
4.810741E-01
5.444462E-01
8.317789E-02
5.166108E-02
6.175229E-01
1.012535E-02
4.936580E-01
4.195860E-01
4.787737E-01
3.666285E-01
2.951138E-01
4.707702E-01
2.225133E-01
1.375493E-01
8.317789E-02
4.071600E-02
1.376751E-02
-4.884102E-03
-1.409662E-02
1.684944E-01
3.045953E-01
2.394333E-01
3.875505E-01
4.532608E-01
5.020727E-01
5.925311E-01
9.867391E-02
3.116482E-02
6.563780E-01
6.305087E-01
-8.882519E-03
5.444462E-01
4.810741E-01
4.106674E-01
5.330001E-01
3.542482E-01
2.733051E-01
5.292896E-01
2.131157E-01
1.684944E-01
8.317789E-02
5.166108E-02
1.012535E-02
-1.409662E-02
-3.169601E-02
1.375493E-01
2.131157E-01
2.801211E-01
3.597064E-01
4.425242E-01
5.438913E-01
6.135247E-01
7.328367E-02
3.729139E-02
7.004921E-01
6.702614E-01
-2.988731E-02
5.925311E-01
5.020727E-01
4.532608E-01
5.680992E-01
3.875505E-01
3.045953E-01
2.394333E-01
1.684944E-01
9.867391E-02
3.116482E-02
-8.882519E-03
-3.169601E-02
-4.778042E-02
1.433014E-01
2.225133E-01
3.045953E-01
3.597064E-01
4.803525E-01
5.946745E-01
5.329077E-01
6.641724E-01
7.585186E-02
1.628711E-02
7.013898E-01
7.388235E-01
-4.012497E-02
6.135247E-01
6.305087E-01
5.438913E-01
4.425242E-01
6.175229E-01
3.597064E-01
2.801211E-01
2.131157E-01
1.375493E-01
7.328367E-02
3.729139E-02
-2.988731E-02
-4.778042E-02
-7.990153E-02
1.069942E-01
1.836442E-01
2.733051E-01
3.875505E-01
4.803525E-01
6.243714E-01
5.611260E-01
6.924798E-01
3.960105E-02
-1.908500E-02
7.341552E-01
7.598164E-01
-7.764414E-02
6.641724E-01
5.946745E-01
6.702614E-01
5.329077E-01
4.803525E-01
6.563780E-01
3.597064E-01
3.045953E-01
2.225133E-01
1.433014E-01
7.585186E-02
1.628711E-02
-4.012497E-02
-7.990153E-02
-9.952759E-02
1.096200E-01
1.626411E-01
2.951138E-01
4.425242E-01
3.542482E-01
5.329077E-01
6.018065E-01
6.715289E-01
7.313343E-01
2.365989E-02
-3.974917E-02
7.859276E-01
-9.921818E-02
6.924798E-01
6.243714E-01
7.013898E-01
5.611260E-01
4.803525E-01
7.004921E-01
3.875505E-01
2.733051E-01
1.836442E-01
1.069942E-01
3.960105E-02
-1.908500E-02
-7.764414E-02
-9.952759E-02
-1.383399E-01
6.253644E-02
1.722678E-01
2.741124E-01
4.532608E-01
3.666285E-01
5.438913E-01
6.243714E-01
6.715289E-01
7.567970E-01
-2.031822E-02
-8.236319E-02
8.069225E-01
7.857291E-01
-1.398842E-01
7.313343E-01
6.715289E-01
6.018065E-01
7.341552E-01
5.329077E-01
4.425242E-01
7.388235E-01
3.542482E-01
2.951138E-01
1.626411E-01
1.096200E-01
2.365989E-02
-3.974917E-02
-9.921818E-02
-1.383399E-01
-1.727540E-01
6.500219E-02
2.230613E-01
1.217124E-01
3.205705E-01
4.106674E-01
5.020727E-01
5.946745E-01
6.924798E-01
7.567970E-01
-5.912933E-02
-1.019880E-01
8.235286E-01
8.003995E-01
-1.787394E-01
7.567970E-01
6.715289E-01
6.243714E-01
7.598164E-01
5.438913E-01
4.532608E-01
3.666285E-01
2.741124E-01
1.722678E-01
6.253644E-02
-2.031822E-02
-8.236319E-02
-1.398842E-01
-1.727540E-01
-2.166902E-01
2.619308E-02
2.131964E-01
1.163657E-01
3.125485E-01
4.195860E-01
4.810741E-01
6.135247E-01
7.313343E-01
6.641724E-01
7.857291E-01
-6.918821E-02
-1.576982E-01
8.172042E-01
8.357437E-01
-2.211315E-01
7.567970E-01
7.857291E-01
6.924798E-01
5.946745E-01
7.859276E-01
5.020727E-01
4.106674E-01
3.205705E-01
2.230613E-01
1.217124E-01
6.500219E-02
-5.912933E-02
-1.019880E-01
-1.787394E-01
-2.166902E-01
-2.591236E-01
5.947824E-02
-3.030966E-02
1.570562E-01
2.562256E-01
3.675251E-01
4.936580E-01
5.925311E-01
7.341552E-01
6.702614E-01
7.859276E-01
-1.293018E-01
-1.749531E-01
8.235286E-01
8.357437E-01
-2.718435E-01
7.857291E-01
7.313343E-01
8.003995E-01
6.641724E-01
6.135247E-01
8.069225E-01
4.810741E-01
4.195860E-01
3.125485E-01
2.131964E-01
1.163657E-01
2.619308E-02
-6.918821E-02
-1.576982E-01
-2.211315E-01
-2.591236E-01
-2.980132E-01
3.366793E-02
-5.927733E-02
1.509657E-01
2.174199E-01
3.768807E-01
5.444462E-01
4.415255E-01
6.305087E-01
7.013898E-01
7.598164E-01
8.069225E-01
-1.515641E-01
-2.256635E-01
-3.000589E-01
7.859276E-01
7.341552E-01
8.172042E-01
6.702614E-01
5.925311E-01
8.235286E-01
4.936580E-01
3.675251E-01
2.562256E-01
1.570562E-01
5.947824E-02
-3.030966E-02
-1.293018E-01
-1.749531E-01
-2.718435E-01
-2.980132E-01
-3.538692E-01
8.446486E-02
-2.858491E-02
-1.204182E-01
2.197149E-01
3.380802E-01
5.330001E-01
4.380873E-01
6.175229E-01
7.004921E-01
7.388235E-01
-2.106211E-01
-2.790161E-01
-3.605797E-01
8.069225E-01
7.598164E-01
7.013898E-01
8.235286E-01
6.305087E-01
5.444462E-01
8.357437E-01
4.415255E-01
3.768807E-01
2.174199E-01
1.509657E-01
3.366793E-02
-5.927733E-02
-1.515641E-01
-2.256635E-01
-3.000589E-01
-3.538692E-01
-3.882203E-01
8.289745E-02
-7.929180E-02
-1.405932E-01
2.746967E-01
1.516933E-01
3.793046E-01
4.787737E-01
5.680992E-01
6.563780E-01
-2.502928E-01
-3.226790E-01
-3.963709E-01
7.388235E-01
7.004921E-01
8.357437E-01
6.175229E-01
5.330001E-01
4.380873E-01
3.380802E-01
2.197149E-01
8.446486E-02
-2.858491E-02
-1.204182E-01
-2.106211E-01
-2.790161E-01
-3.605797E-01
-3.882203E-01
-4.431136E-01
3.219573E-02
-8.763746E-02
-2.114108E-01
2.507203E-01
1.392479E-01
3.551060E-01
4.707702E-01
5.292896E-01
-3.089982E-01
-3.795131E-01
-4.486070E-01
6.563780E-01
5.680992E-01
4.787737E-01
3.793046E-01
2.746967E-01
1.516933E-01
8.289745E-02
-7.929180E-02
-1.405932E-01
-2.502928E-01
-3.226790E-01
-3.963709E-01
-4.431136E-01
-4.851930E-01
7.038675E-02
-3.683536E-02
-1.611927E-01
-2.236646E-01
1.832931E-01
2.899052E-01
4.058852E-01
-3.638886E-01
-4.107035E-01
-4.961038E-01
5.292896E-01
4.707702E-01
3.551060E-01
2.507203E-01
1.392479E-01
3.219573E-02
-8.763746E-02
-2.114108E-01
-3.089982E-01
-3.795131E-01
-4.486070E-01
-4.851930E-01
-5.369075E-01
3.865872E-02
-6.969339E-02
-1.807522E-01
-2.785498E-01
1.694008E-01
2.391906E-01
-3.816064E-01
-4.750581E-01
-5.423248E-01
4.058852E-01
2.899052E-01
1.832931E-01
7.038675E-02
-3.683536E-02
-1.611927E-01
-2.236646E-01
-3.638886E-01
-4.107035E-01
-4.961038E-01
-5.369075E-01
-5.807826E-01
9.362751E-02
-3.239033E-02
-1.400550E-01
-2.492081E-01
-3.427193E-01
-4.494986E-01
-4.961354E-01
-5.930455E-01
2.391906E-01
1.694008E-01
3.865872E-02
-6.969339E-02
-1.807522E-01
-2.785498E-01
-3.816064E-01
-4.750581E-01
-5.423248E-01
-5.807826E-01
-6.182446E-01
-8.728852E-02
-1.577218E-01
-2.836360E-01
-3.794583E-01
-4.731964E-01
-5.468510E-01
-6.174424E-01
9.362751E-02
-3.239033E-02
-1.400550E-01
-2.492081E-01
-3.427193E-01
-4.494986E-01
-4.961354E-01
-5.930455E-01
-6.182446E-01
-6.663418E-01
-2.328469E-01
-3.497168E-01
-4.420432E-01
-5.308271E-01
-5.963916E-01
-6.693398E-01
-8.728852E-02
-1.577218E-01
-2.836360E-01
-3.794583E-01
-4.731964E-01
-5.468510E-01
-6.174424E-01
-6.663418E-01
-6.930401E-01
-4.004415E-01
-4.607959E-01
-5.627157E-01
-6.314226E-01
-6.935737E-01
-2.328469E-01
-3.497168E-01
-4.420432E-01
-5.308271E-01
-5.963916E-01
-6.693398E-01
-6.930401E-01
-7.318733E-01
-5.238377E-01
-6.137706E-01
-6.767073E-01
-7.316118E-01
-4.004415E-01
-4.607959E-01
-5.627157E-01
-6.314226E-01
-6.935737E-01
-7.318733E-01
-7.592477E-01
-6.526034E-01
-6.936941E-01
-7.561151E-01
-5.238377E-01
-6.137706E-01
-6.767073E-01
-7.316118E-01
-7.592477E-01
-7.872541E-01
-7.350639E-01
-7.843830E-01
-6.526034E-01
-6.936941E-01
-7.561151E-01
-7.872541E-01
-8.083623E-01
-8.054340E-01
-7.350639E-01
-7.843830E-01
-8.083623E-01
-8.210195E-01
-8.054340E-01
-8.210195E-01
-8.345093E-01
-8.345093E-01
