# vtk DataFile Version 2.0
Grille
ASCII
DATASET POLYDATA
POINTS 481 float
0.000000E+00 8.750000E-01 -5.610564E-01
6.250000E-02 8.750000E-01 -5.491599E-01
1.250000E-01 8.750000E-01 -5.182770E-01
1.250000E-01 9.375000E-01 -5.491599E-01
1.250000E-01 1.000000E+00 -5.610564E-01
6.250000E-02 1.000000E+00 -5.945032E-01
0.000000E+00 1.000000E+00 -6.076586E-01
0.000000E+00 9.375000E-01 -5.945032E-01
3.750000E-02 9.125000E-01 -5.786017E-01
8.125000E-02 9.187500E-01 -5.672401E-01
8.750000E-02 9.625000E-01 -5.786017E-01
4.375000E-02 9.562500E-01 -5.946265E-01
1.875000E-01 8.750000E-01 -4.655143E-01
2.500000E-01 8.750000E-01 -3.964913E-01
2.500000E-01 9.375000E-01 -4.201718E-01
2.500000E-01 1.000000E+00 -4.292064E-01
1.875000E-01 1.000000E+00 -5.038163E-01
1.625000E-01 9.125000E-01 -5.082762E-01
2.062500E-01 9.187500E-01 -4.672275E-01
2.125000E-01 9.625000E-01 -4.719468E-01
1.687500E-01 9.562500E-01 -5.177132E-01
0.000000E+00 7.500000E-01 -4.292064E-01
6.250000E-02 7.500000E-01 -4.201718E-01
1.250000E-01 7.500000E-01 -3.964913E-01
1.250000E-01 8.125000E-01 -4.655143E-01
0.000000E+00 8.125000E-01 -5.038163E-01
3.750000E-02 7.875000E-01 -4.719468E-01
8.125000E-02 7.937500E-01 -4.672275E-01
8.750000E-02 8.375000E-01 -5.082762E-01
4.375000E-02 8.312500E-01 -5.177132E-01
1.875000E-01 7.500000E-01 -3.562638E-01
2.500000E-01 7.500000E-01 -3.032862E-01
2.500000E-01 8.125000E-01 -3.562638E-01
1.625000E-01 7.875000E-01 -4.146770E-01
2.062500E-01 7.937500E-01 -3.848228E-01
2.125000E-01 8.375000E-01 -4.146770E-01
1.687500E-01 8.312500E-01 -4.507689E-01
3.125000E-01 8.750000E-01 -3.109322E-01
3.750000E-01 8.750000E-01 -2.142814E-01
3.750000E-01 9.375000E-01 -2.271708E-01
3.750000E-01 1.000000E+00 -2.319762E-01
3.125000E-01 1.000000E+00 -3.364300E-01
2.875000E-01 9.125000E-01 -3.605183E-01
3.312500E-01 9.187500E-01 -2.960377E-01
3.375000E-01 9.625000E-01 -2.934161E-01
2.937500E-01 9.562500E-01 -3.619761E-01
4.375000E-01 8.750000E-01 -1.089500E-01
5.000000E-01 8.750000E-01 6.163831E-04
5.000000E-01 9.375000E-01 4.756273E-04
5.000000E-01 1.000000E+00 6.292128E-04
4.375000E-01 1.000000E+00 -1.177730E-01
4.125000E-01 9.125000E-01 -1.578186E-01
4.562500E-01 9.187500E-01 -7.971954E-02
4.625000E-01 9.625000E-01 -7.015900E-02
4.187500E-01 9.562500E-01 -1.510802E-01
3.125000E-01 7.500000E-01 -2.380260E-01
3.750000E-01 7.500000E-01 -1.638256E-01
3.750000E-01 8.125000E-01 -1.927005E-01
2.875000E-01 7.875000E-01 -2.941849E-01
3.312500E-01 7.937500E-01 -2.437497E-01
3.375000E-01 8.375000E-01 -2.578738E-01
2.937500E-01 8.312500E-01 -3.151184E-01
4.375000E-01 7.500000E-01 -8.347256E-02
5.000000E-01 7.500000E-01 6.520489E-04
5.000000E-01 8.125000E-01 2.705559E-04
4.125000E-01 7.875000E-01 -1.288300E-01
4.562500E-01 7.937500E-01 -6.549441E-02
4.625000E-01 8.375000E-01 -6.174314E-02
4.187500E-01 8.312500E-01 -1.314242E-01
0.000000E+00 6.250000E-01 -2.319762E-01
6.250000E-02 6.250000E-01 -2.271708E-01
1.250000E-01 6.250000E-01 -2.142814E-01
1.250000E-01 6.875000E-01 -3.109322E-01
0.000000E+00 6.875000E-01 -3.364300E-01
3.750000E-02 6.625000E-01 -2.934161E-01
8.125000E-02 6.687500E-01 -2.960377E-01
8.750000E-02 7.125000E-01 -3.605183E-01
4.375000E-02 7.062500E-01 -3.619761E-01
1.875000E-01 6.250000E-01 -1.927005E-01
2.500000E-01 6.250000E-01 -1.638256E-01
2.500000E-01 6.875000E-01 -2.380260E-01
1.625000E-01 6.625000E-01 -2.578738E-01
2.062500E-01 6.687500E-01 -2.437497E-01
2.125000E-01 7.125000E-01 -2.941849E-01
1.687500E-01 7.062500E-01 -3.151184E-01
0.000000E+00 5.000000E-01 6.292128E-04
6.250000E-02 5.000000E-01 4.756273E-04
1.250000E-01 5.000000E-01 6.163831E-04
1.250000E-01 5.625000E-01 -1.089500E-01
0.000000E+00 5.625000E-01 -1.177730E-01
3.750000E-02 5.375000E-01 -7.015900E-02
8.125000E-02 5.437500E-01 -7.971954E-02
8.750000E-02 5.875000E-01 -1.578186E-01
4.375000E-02 5.812500E-01 -1.510802E-01
1.875000E-01 5.000000E-01 2.705559E-04
2.500000E-01 5.000000E-01 6.520489E-04
2.500000E-01 5.625000E-01 -8.347256E-02
1.625000E-01 5.375000E-01 -6.174314E-02
2.062500E-01 5.437500E-01 -6.549441E-02
2.125000E-01 5.875000E-01 -1.288300E-01
1.687500E-01 5.812500E-01 -1.314242E-01
3.125000E-01 6.250000E-01 -1.287946E-01
3.750000E-01 6.250000E-01 -8.833791E-02
3.750000E-01 6.875000E-01 -1.287946E-01
2.875000E-01 6.625000E-01 -1.829747E-01
3.312500E-01 6.687500E-01 -1.542597E-01
3.375000E-01 7.125000E-01 -1.829747E-01
2.937500E-01 7.062500E-01 -2.201939E-01
4.375000E-01 6.250000E-01 -4.519466E-02
5.000000E-01 6.250000E-01 6.815836E-04
5.000000E-01 6.875000E-01 1.248169E-04
4.125000E-01 6.625000E-01 -8.013305E-02
4.562500E-01 6.687500E-01 -4.120200E-02
4.625000E-01 7.125000E-01 -4.382808E-02
4.187500E-01 7.062500E-01 -9.166371E-02
3.125000E-01 5.000000E-01 1.248169E-04
3.750000E-01 5.000000E-01 6.815836E-04
3.750000E-01 5.625000E-01 -4.519466E-02
2.875000E-01 5.375000E-01 -4.382808E-02
3.312500E-01 5.437500E-01 -4.120200E-02
3.375000E-01 5.875000E-01 -8.013305E-02
2.937500E-01 5.812500E-01 -9.166371E-02
4.375000E-01 5.000000E-01 4.868053E-05
5.000000E-01 5.000000E-01 6.928394E-04
5.000000E-01 5.625000E-01 4.868053E-05
4.125000E-01 5.375000E-01 -1.915053E-02
4.562500E-01 5.437500E-01 -1.054967E-02
4.625000E-01 5.875000E-01 -1.915053E-02
4.187500E-01 5.812500E-01 -3.785939E-02
5.625000E-01 8.750000E-01 1.096853E-01
6.250000E-01 8.750000E-01 2.154872E-01
6.250000E-01 9.375000E-01 2.281138E-01
6.250000E-01 1.000000E+00 2.332021E-01
5.625000E-01 1.000000E+00 1.188763E-01
5.375000E-01 9.125000E-01 6.897134E-02
5.812500E-01 9.187500E-01 1.487997E-01
5.875000E-01 9.625000E-01 1.638425E-01
5.437500E-01 9.562500E-01 8.287852E-02
6.875000E-01 8.750000E-01 3.116887E-01
7.500000E-01 8.750000E-01 3.976174E-01
7.500000E-01 9.375000E-01 4.210844E-01
7.500000E-01 1.000000E+00 4.303311E-01
6.875000E-01 1.000000E+00 3.374901E-01
6.625000E-01 9.125000E-01 2.853260E-01
7.062500E-01 9.187500E-01 3.547293E-01
7.125000E-01 9.625000E-01 3.729622E-01
6.687500E-01 9.562500E-01 3.042830E-01
5.625000E-01 7.500000E-01 8.386370E-02
6.250000E-01 7.500000E-01 1.651050E-01
6.250000E-01 8.125000E-01 1.932711E-01
5.375000E-01 7.875000E-01 5.621077E-02
5.812500E-01 7.937500E-01 1.228037E-01
5.875000E-01 8.375000E-01 1.438564E-01
5.437500E-01 8.312500E-01 7.234752E-02
6.875000E-01 7.500000E-01 2.385074E-01
7.500000E-01 7.500000E-01 3.044983E-01
7.500000E-01 8.125000E-01 3.569188E-01
6.625000E-01 7.875000E-01 2.327662E-01
7.062500E-01 7.937500E-01 2.924781E-01
7.125000E-01 8.375000E-01 3.276241E-01
6.687500E-01 8.312500E-01 2.651744E-01
8.125000E-01 8.750000E-01 4.663038E-01
8.750000E-01 8.750000E-01 5.192758E-01
8.750000E-01 9.375000E-01 5.499945E-01
8.750000E-01 1.000000E+00 5.619833E-01
8.125000E-01 1.000000E+00 5.047766E-01
7.875000E-01 9.125000E-01 4.583026E-01
8.312500E-01 9.187500E-01 5.067102E-01
8.375000E-01 9.625000E-01 5.253514E-01
7.937500E-01 9.562500E-01 4.794194E-01
9.375000E-01 8.750000E-01 5.499945E-01
1.000000E+00 8.750000E-01 5.619833E-01
1.000000E+00 9.375000E-01 5.952164E-01
1.000000E+00 1.000000E+00 6.079046E-01
9.375000E-01 1.000000E+00 5.952164E-01
9.125000E-01 9.125000E-01 5.615559E-01
9.562500E-01 9.187500E-01 5.815939E-01
9.625000E-01 9.625000E-01 5.977521E-01
9.187500E-01 9.562500E-01 5.815939E-01
8.125000E-01 7.500000E-01 3.569188E-01
8.750000E-01 7.500000E-01 3.976174E-01
8.750000E-01 8.125000E-01 4.663038E-01
7.875000E-01 7.875000E-01 3.739590E-01
8.312500E-01 7.937500E-01 4.177001E-01
8.375000E-01 8.375000E-01 4.615828E-01
7.937500E-01 8.312500E-01 4.177001E-01
9.375000E-01 7.500000E-01 4.210844E-01
1.000000E+00 7.500000E-01 4.303311E-01
1.000000E+00 8.125000E-01 5.047766E-01
9.125000E-01 7.875000E-01 4.583026E-01
9.562500E-01 7.937500E-01 4.794194E-01
9.625000E-01 8.375000E-01 5.253514E-01
9.187500E-01 8.312500E-01 5.067102E-01
5.625000E-01 6.250000E-01 4.536707E-02
6.250000E-01 6.250000E-01 8.967807E-02
6.250000E-01 6.875000E-01 1.291034E-01
5.375000E-01 6.625000E-01 3.498847E-02
5.812500E-01 6.687500E-01 7.820763E-02
5.875000E-01 7.125000E-01 1.020679E-01
5.437500E-01 7.062500E-01 5.089934E-02
6.875000E-01 6.250000E-01 1.291034E-01
7.500000E-01 6.250000E-01 1.651050E-01
7.500000E-01 6.875000E-01 2.385074E-01
6.625000E-01 6.625000E-01 1.448628E-01
7.062500E-01 6.687500E-01 1.857908E-01
7.125000E-01 7.125000E-01 2.325026E-01
6.687500E-01 7.062500E-01 1.857908E-01
5.625000E-01 5.000000E-01 4.868053E-05
6.250000E-01 5.000000E-01 6.815836E-04
6.250000E-01 5.625000E-01 4.536707E-02
5.375000E-01 5.375000E-01 8.526513E-03
5.812500E-01 5.437500E-01 2.179176E-02
5.875000E-01 5.875000E-01 4.482959E-02
5.437500E-01 5.812500E-01 2.179176E-02
6.875000E-01 5.000000E-01 1.248169E-04
7.500000E-01 5.000000E-01 6.520489E-04
7.500000E-01 5.625000E-01 8.386370E-02
6.625000E-01 5.375000E-01 3.498847E-02
7.062500E-01 5.437500E-01 5.089934E-02
7.125000E-01 5.875000E-01 1.020679E-01
6.687500E-01 5.812500E-01 7.820763E-02
8.125000E-01 6.250000E-01 1.932711E-01
8.750000E-01 6.250000E-01 2.154872E-01
8.750000E-01 6.875000E-01 3.116887E-01
7.875000E-01 6.625000E-01 2.327662E-01
8.312500E-01 6.687500E-01 2.651744E-01
8.375000E-01 7.125000E-01 3.276241E-01
7.937500E-01 7.062500E-01 2.924781E-01
9.375000E-01 6.250000E-01 2.281138E-01
1.000000E+00 6.250000E-01 2.332021E-01
1.000000E+00 6.875000E-01 3.374901E-01
9.125000E-01 6.625000E-01 2.853260E-01
9.562500E-01 6.687500E-01 3.042830E-01
9.625000E-01 7.125000E-01 3.729622E-01
9.187500E-01 7.062500E-01 3.547293E-01
8.125000E-01 5.000000E-01 2.705559E-04
8.750000E-01 5.000000E-01 6.163831E-04
8.750000E-01 5.625000E-01 1.096853E-01
7.875000E-01 5.375000E-01 5.621077E-02
8.312500E-01 5.437500E-01 7.234752E-02
8.375000E-01 5.875000E-01 1.438564E-01
7.937500E-01 5.812500E-01 1.228037E-01
9.375000E-01 5.000000E-01 4.756273E-04
1.000000E+00 5.000000E-01 6.292128E-04
1.000000E+00 5.625000E-01 1.188763E-01
9.125000E-01 5.375000E-01 6.897134E-02
9.562500E-01 5.437500E-01 8.287852E-02
9.625000E-01 5.875000E-01 1.638425E-01
9.187500E-01 5.812500E-01 1.487997E-01
0.000000E+00 3.750000E-01 2.332021E-01
6.250000E-02 3.750000E-01 2.281138E-01
[...]
CELL_DATA 896
SCALARS sol float 1
LOOKUP_TABLE default
-5.629393E-01
-5.650006E-01
-5.780538E-01
-5.426432E-01
-5.801561E-01
-5.448923E-01
-5.892438E-01
-5.275286E-01
-5.250498E-01
-5.801561E-01
-5.448923E-01
-5.252377E-01
-5.989294E-01
-4.978254E-01
-4.977390E-01
-5.892438E-01
-5.650006E-01
-5.252377E-01
-4.973558E-01
-5.989294E-01
-4.856292E-01
-4.683232E-01
-4.803393E-01
-5.780538E-01
-5.629393E-01
-4.973558E-01
-5.250498E-01
-4.781867E-01
-4.531154E-01
-4.404417E-01
-4.430777E-01
-5.426432E-01
-4.803393E-01
-4.781867E-01
-4.977390E-01
-4.436534E-01
-4.279635E-01
-4.037847E-01
-4.255609E-01
-5.275286E-01
-4.430777E-01
-4.436534E-01
-4.856292E-01
-4.167562E-01
-3.923938E-01
-3.758708E-01
-3.808887E-01
-3.891441E-01
-4.978254E-01
-4.279635E-01
-4.255609E-01
-4.167562E-01
-4.531154E-01
-3.852545E-01
-3.559806E-01
-3.306074E-01
-3.395107E-01
-3.559578E-01
-4.683232E-01
-3.923938E-01
-3.891441E-01
-3.852545E-01
-4.404417E-01
-3.481243E-01
-3.224960E-01
-3.408473E-01
-3.171433E-01
-2.872741E-01
-3.218557E-01
-3.559806E-01
-3.808887E-01
-3.559578E-01
-3.481243E-01
-4.037847E-01
-3.179116E-01
-2.737504E-01
-2.946415E-01
-2.722082E-01
-2.508544E-01
-2.843510E-01
-3.224960E-01
-3.408473E-01
-3.395107E-01
-3.218557E-01
-3.179116E-01
-3.758708E-01
-2.784990E-01
-2.458299E-01
-2.610291E-01
-2.722473E-01
-2.034091E-01
-2.586535E-01
-2.737504E-01
-2.946415E-01
-3.171433E-01
-2.843510E-01
-2.784990E-01
-3.306074E-01
-2.538354E-01
-1.997569E-01
-2.216186E-01
-2.314413E-01
-1.669431E-01
-1.786899E-01
-2.152004E-01
-2.458299E-01
-2.610291E-01
-2.722473E-01
-2.722082E-01
-2.586535E-01
-2.538354E-01
-2.872741E-01
-2.137315E-01
-1.603500E-01
-1.794687E-01
-2.000919E-01
-1.130041E-01
-1.295395E-01
-1.949421E-01
-1.997569E-01
-2.216186E-01
-2.314413E-01
-2.508544E-01
-2.152004E-01
-2.137315E-01
-1.858094E-01
-1.515519E-01
-1.154961E-01
-1.509849E-01
-1.617854E-01
-1.003196E-01
-6.243426E-02
-1.585316E-01
-1.603500E-01
-1.786899E-01
-1.794687E-01
-2.000919E-01
-2.034091E-01
-1.949421E-01
-1.858094E-01
-1.553430E-01
-1.007058E-01
-6.268440E-02
-1.085829E-01
-1.253760E-01
-4.980097E-02
-2.301805E-02
-1.280946E-01
-1.154961E-01
-1.515519E-01
-1.295395E-01
-1.509849E-01
-1.617854E-01
-1.669431E-01
-1.585316E-01
-1.553430E-01
-1.237974E-01
-8.622058E-02
-5.669226E-02
-2.620918E-02
-9.259898E-02
-1.129873E-01
2.799445E-02
-1.001971E-01
-6.268440E-02
-1.007058E-01
-1.003196E-01
-1.085829E-01
-1.253760E-01
-1.130041E-01
-1.280946E-01
-1.237974E-01
-9.908853E-02
-4.232233E-02
-2.028540E-02
2.335445E-02
-4.943831E-02
-7.298812E-02
6.746134E-02
5.077516E-02
-7.099959E-02
-2.620918E-02
-5.669226E-02
-8.622058E-02
-4.980097E-02
-9.259898E-02
-1.129873E-01
-6.243426E-02
-1.001971E-01
-9.908853E-02
-7.122187E-02
-2.152394E-02
2.441148E-02
5.975768E-02
-4.221620E-02
-5.889793E-02
1.218658E-01
1.002165E-01
-5.550990E-02
2.335445E-02
-2.028540E-02
-4.232233E-02
-2.301805E-02
-4.943831E-02
-7.298812E-02
-7.099959E-02
-7.122187E-02
-5.713065E-02
1.904446E-02
6.088307E-02
4.294295E-02
1.091521E-01
-1.435040E-02
-2.830175E-02
1.318402E-01
1.719736E-01
-2.857169E-02
5.975768E-02
5.077516E-02
2.441148E-02
-2.152394E-02
2.799445E-02
-4.221620E-02
-5.889793E-02
-5.550990E-02
-5.713065E-02
-3.406819E-02
4.690884E-02
1.086298E-01
8.378733E-02
1.579908E-01
1.722540E-02
-1.346520E-02
1.802520E-01
2.083861E-01
-2.122120E-02
1.091521E-01
6.088307E-02
1.002165E-01
4.294295E-02
1.904446E-02
6.746134E-02
-1.435040E-02
-2.830175E-02
-2.857169E-02
-3.406819E-02
-2.251986E-02
4.513836E-02
8.762605E-02
1.130026E-01
1.563430E-01
1.974669E-01
2.867087E-02
1.193162E-02
2.551996E-01
-6.140088E-03
1.579908E-01
1.086298E-01
1.318402E-01
8.378733E-02
4.690884E-02
1.218658E-01
1.722540E-02
-1.346520E-02
-2.122120E-02
-2.251986E-02
-9.883838E-03
7.894364E-02
1.239241E-01
1.533104E-01
1.842049E-01
2.429757E-01
5.469848E-02
2.701237E-02
2.916584E-01
2.725743E-01
7.507341E-03
1.974669E-01
1.563430E-01
1.130026E-01
1.802520E-01
8.762605E-02
4.513836E-02
1.719736E-01
2.867087E-02
1.193162E-02
-6.140088E-03
-9.883838E-03
-3.269382E-03
7.705829E-02
1.170122E-01
1.603933E-01
2.246443E-01
2.708340E-01
5.285439E-02
2.261347E-02
3.382451E-01
3.147794E-01
1.012232E-02
2.429757E-01
1.842049E-01
1.533104E-01
2.083861E-01
1.239241E-01
7.894364E-02
5.469848E-02
2.701237E-02
7.507341E-03
-3.269382E-03
3.089344E-03
1.031263E-01
1.320921E-01
1.970475E-01
2.641168E-01
2.304039E-01
3.172480E-01
7.108426E-02
3.732947E-02
3.439915E-01
3.802612E-01
1.737001E-02
2.708340E-01
2.725743E-01
2.246443E-01
1.603933E-01
2.551996E-01
1.170122E-01
7.705829E-02
5.285439E-02
2.261347E-02
1.012232E-02
3.089344E-03
3.089344E-03
9.899636E-02
1.599997E-01
2.121262E-01
3.014957E-01
2.634729E-01
3.546785E-01
5.995824E-02
2.947104E-02
3.829253E-01
4.081259E-01
1.012232E-02
3.172480E-01
2.641168E-01
3.147794E-01
2.304039E-01
1.970475E-01
2.916584E-01
1.320921E-01
1.031263E-01
7.108426E-02
3.732947E-02
1.737001E-02
3.089344E-03
-3.269382E-03
1.212147E-01
1.964677E-01
1.532523E-01
2.545839E-01
2.950922E-01
3.456434E-01
3.911437E-01
5.995824E-02
3.732947E-02
4.436116E-01
7.507341E-03
3.546785E-01
3.014957E-01
3.439915E-01
2.634729E-01
2.121262E-01
3.382451E-01
1.599997E-01
9.899636E-02
5.995824E-02
2.947104E-02
1.012232E-02
-3.269382E-03
-9.883838E-03
1.212147E-01
2.189336E-01
1.721481E-01
2.784946E-01
3.256737E-01
3.607201E-01
4.256681E-01
7.108426E-02
2.261347E-02
4.715090E-01
4.529354E-01
-6.140088E-03
3.911437E-01
3.456434E-01
2.950922E-01
3.829253E-01
2.545839E-01
1.964677E-01
3.802612E-01
1.532523E-01
1.212147E-01
5.995824E-02
3.732947E-02
7.507341E-03
-9.883838E-03
-2.251986E-02
9.899636E-02
1.532523E-01
2.013614E-01
2.585028E-01
3.179651E-01
3.907455E-01
4.407413E-01
5.285439E-02
2.701237E-02
5.031824E-01
4.814774E-01
-2.122120E-02
4.256681E-01
3.607201E-01
3.256737E-01
4.081259E-01
2.784946E-01
2.189336E-01
1.721481E-01
1.212147E-01
7.108426E-02
2.261347E-02
-6.140088E-03
-2.251986E-02
-3.406819E-02
1.031263E-01
1.599997E-01
2.189336E-01
2.585028E-01
3.451254E-01
4.272071E-01
3.828593E-01
4.771055E-01
5.469848E-02
1.193162E-02
5.038270E-01
5.307038E-01
-2.857169E-02
4.407413E-01
4.529354E-01
3.907455E-01
3.179651E-01
4.436116E-01
2.585028E-01
2.013614E-01
1.532523E-01
9.899636E-02
5.285439E-02
2.701237E-02
-2.122120E-02
-3.406819E-02
-5.713065E-02
7.705829E-02
1.320921E-01
1.964677E-01
2.784946E-01
3.451254E-01
4.485289E-01
4.031198E-01
4.974299E-01
2.867087E-02
-1.346520E-02
5.273520E-01
5.457764E-01
-5.550990E-02
4.771055E-01
4.272071E-01
4.814774E-01
3.828593E-01
3.451254E-01
4.715090E-01
2.585028E-01
2.189336E-01
1.599997E-01
1.031263E-01
5.469848E-02
1.193162E-02
-2.857169E-02
-5.713065E-02
-7.122187E-02
7.894364E-02
1.170122E-01
2.121262E-01
3.179651E-01
2.545839E-01
3.828593E-01
4.323277E-01
4.823875E-01
5.253268E-01
1.722540E-02
-2.830175E-02
5.645239E-01
-7.099959E-02
4.974299E-01
4.485289E-01
5.038270E-01
4.031198E-01
3.451254E-01
5.031824E-01
2.784946E-01
1.964677E-01
1.320921E-01
7.705829E-02
2.867087E-02
-1.346520E-02
-5.550990E-02
-7.122187E-02
-9.908853E-02
4.513836E-02
1.239241E-01
1.970475E-01
3.256737E-01
2.634729E-01
3.907455E-01
4.485289E-01
4.823875E-01
5.436087E-01
-1.435040E-02
-5.889793E-02
5.795979E-01
5.643814E-01
-1.001971E-01
5.253268E-01
4.823875E-01
4.323277E-01
5.273520E-01
3.828593E-01
3.179651E-01
5.307038E-01
2.545839E-01
2.121262E-01
1.170122E-01
7.894364E-02
1.722540E-02
-2.830175E-02
-7.099959E-02
-9.908853E-02
-1.237974E-01
4.690884E-02
1.603933E-01
8.762605E-02
2.304039E-01
2.950922E-01
3.607201E-01
4.272071E-01
4.974299E-01
5.436087E-01
-4.221620E-02
-7.298812E-02
5.915208E-01
5.749146E-01
-1.280946E-01
5.436087E-01
4.823875E-01
4.485289E-01
5.457764E-01
3.907455E-01
3.256737E-01
2.634729E-01
1.970475E-01
1.239241E-01
4.513836E-02
-1.435040E-02
-5.889793E-02
-1.001971E-01
-1.237974E-01
-1.553430E-01
1.904446E-02
1.533104E-01
8.378733E-02
2.246443E-01
3.014957E-01
3.456434E-01
4.407413E-01
5.253268E-01
4.771055E-01
5.643814E-01
-4.943831E-02
-1.129873E-01
5.869800E-01
6.002911E-01
-1.585316E-01
5.436087E-01
5.643814E-01
4.974299E-01
4.272071E-01
5.645239E-01
3.607201E-01
2.950922E-01
2.304039E-01
1.603933E-01
8.762605E-02
4.690884E-02
-4.221620E-02
-7.298812E-02
-1.280946E-01
-1.553430E-01
-1.858094E-01
4.294295E-02
-2.152394E-02
1.130026E-01
1.842049E-01
2.641168E-01
3.546785E-01
4.256681E-01
5.273520E-01
4.814774E-01
5.645239E-01
-9.259898E-02
-1.253760E-01
5.915208E-01
6.002911E-01
-1.949421E-01
5.643814E-01
5.253268E-01
5.749146E-01
4.771055E-01
4.407413E-01
5.795979E-01
3.456434E-01
3.014957E-01
2.246443E-01
1.533104E-01
8.378733E-02
1.904446E-02
-4.943831E-02
-1.129873E-01
-1.585316E-01
-1.858094E-01
-2.137315E-01
2.441148E-02
-4.232233E-02
1.086298E-01
1.563430E-01
2.708340E-01
3.911437E-01
3.172480E-01
4.529354E-01
5.038270E-01
5.457764E-01
5.795979E-01
-1.085829E-01
-1.617854E-01
-2.152004E-01
5.645239E-01
5.273520E-01
5.869800E-01
4.814774E-01
4.256681E-01
5.915208E-01
3.546785E-01
2.641168E-01
1.842049E-01
1.130026E-01
4.294295E-02
-2.152394E-02
-9.259898E-02
-1.253760E-01
-1.949421E-01
-2.137315E-01
-2.538354E-01
6.088307E-02
-2.028540E-02
-8.622058E-02
1.579908E-01
2.429757E-01
3.829253E-01
3.147794E-01
4.436116E-01
5.031824E-01
5.307038E-01
-1.509849E-01
-2.000919E-01
-2.586535E-01
5.795979E-01
5.457764E-01
5.038270E-01
5.915208E-01
4.529354E-01
3.911437E-01
6.002911E-01
3.172480E-01
2.708340E-01
1.563430E-01
1.086298E-01
2.441148E-02
-4.232233E-02
-1.085829E-01
-1.617854E-01
-2.152004E-01
-2.538354E-01
-2.784990E-01
5.975768E-02
-5.669226E-02
-1.007058E-01
1.974669E-01
1.091521E-01
2.725743E-01
3.439915E-01
4.081259E-01
4.715090E-01
-1.794687E-01
-2.314413E-01
-2.843510E-01
5.307038E-01
5.031824E-01
6.002911E-01
4.436116E-01
3.829253E-01
3.147794E-01
2.429757E-01
1.579908E-01
6.088307E-02
-2.028540E-02
-8.622058E-02
-1.509849E-01
-2.000919E-01
-2.586535E-01
-2.784990E-01
-3.179116E-01
2.335445E-02
-6.268440E-02
-1.515519E-01
1.802520E-01
1.002165E-01
2.551996E-01
3.382451E-01
3.802612E-01
-2.216186E-01
-2.722473E-01
-3.218557E-01
4.715090E-01
4.081259E-01
3.439915E-01
2.725743E-01
1.974669E-01
1.091521E-01
5.975768E-02
-5.669226E-02
-1.007058E-01
-1.794687E-01
-2.314413E-01
-2.843510E-01
-3.179116E-01
-3.481243E-01
5.077516E-02
-2.620918E-02
-1.154961E-01
-1.603500E-01
1.318402E-01
2.083861E-01
2.916584E-01
-2.610291E-01
-2.946415E-01
-3.559578E-01
3.802612E-01
3.382451E-01
2.551996E-01
1.802520E-01
1.002165E-01
2.335445E-02
-6.268440E-02
-1.515519E-01
-2.216186E-01
-2.722473E-01
-3.218557E-01
-3.481243E-01
-3.852545E-01
2.799445E-02
-4.980097E-02
-1.295395E-01
-1.997569E-01
1.218658E-01
1.719736E-01
-2.737504E-01
-3.408473E-01
-3.891441E-01
2.916584E-01
2.083861E-01
1.318402E-01
5.077516E-02
-2.620918E-02
-1.154961E-01
-1.603500E-01
-2.610291E-01
-2.946415E-01
-3.559578E-01
-3.852545E-01
-4.167562E-01
6.746134E-02
-2.301805E-02
-1.003196E-01
-1.786899E-01
-2.458299E-01
-3.224960E-01
-3.559806E-01
-4.255609E-01
1.719736E-01
1.218658E-01
2.799445E-02
-4.980097E-02
-1.295395E-01
-1.997569E-01
-2.737504E-01
-3.408473E-01
-3.891441E-01
-4.167562E-01
-4.436534E-01
-6.243426E-02
-1.130041E-01
-2.034091E-01
-2.722082E-01
-3.395107E-01
-3.923938E-01
-4.430777E-01
6.746134E-02
-2.301805E-02
-1.003196E-01
-1.786899E-01
-2.458299E-01
-3.224960E-01
-3.559806E-01
-4.255609E-01
-4.436534E-01
-4.781867E-01
-1.669431E-01
-2.508544E-01
-3.171433E-01
-3.808887E-01
-4.279635E-01
-4.803393E-01
-6.243426E-02
-1.130041E-01
-2.034091E-01
-2.722082E-01
-3.395107E-01
-3.923938E-01
-4.430777E-01
-4.781867E-01
-4.973558E-01
-2.872741E-01
-3.306074E-01
-4.037847E-01
-4.531154E-01
-4.977390E-01
-1.669431E-01
-2.508544E-01
-3.171433E-01
-3.808887E-01
-4.279635E-01
-4.803393E-01
-4.973558E-01
-5.252377E-01
-3.758708E-01
-4.404417E-01
-4.856292E-01
-5.250498E-01
-2.872741E-01
-3.306074E-01
-4.037847E-01
-4.531154E-01
-4.977390E-01
-5.252377E-01
-5.448923E-01
-4.683232E-01
-4.978254E-01
-5.426432E-01
-3.758708E-01
-4.404417E-01
-4.856292E-01
-5.250498E-01
-5.448923E-01
-5.650006E-01
-5.275286E-01
-5.629393E-01
-4.683232E-01
-4.978254E-01
-5.426432E-01
-5.650006E-01
-5.801561E-01
-5.780538E-01
-5.275286E-01
-5.629393E-01
-5.801561E-01
-5.892438E-01
-5.780538E-01
-5.892438E-01
-5.989294E-01
-5.989294E-01
