# vtk DataFile Version 2.0
Grille
ASCII
DATASET POLYDATA
POINTS 481 float
0.000000E+00 8.750000E-01 -9.250497E-01
6.250000E-02 8.750000E-01 -9.054549E-01
1.250000E-01 8.750000E-01 -8.545817E-01
1.250000E-01 9.375000E-01 -9.054549E-01
1.250000E-01 1.000000E+00 -9.250497E-01
6.250000E-02 1.000000E+00 -9.801454E-01
0.000000E+00 1.000000E+00 -1.001814E+00
0.000000E+00 9.375000E-01 -9.801454E-01
3.750000E-02 9.125000E-01 -9.539522E-01
8.125000E-02 9.187500E-01 -9.352367E-01
8.750000E-02 9.625000E-01 -9.539522E-01
4.375000E-02 9.562500E-01 -9.803487E-01
1.875000E-01 8.750000E-01 -7.676665E-01
2.500000E-01 8.750000E-01 -6.539631E-01
2.500000E-01 9.375000E-01 -6.929756E-01
2.500000E-01 1.000000E+00 -7.078573E-01
1.875000E-01 1.000000E+00 -8.307630E-01
1.625000E-01 9.125000E-01 -8.381089E-01
2.062500E-01 9.187500E-01 -7.704892E-01
2.125000E-01 9.625000E-01 -7.782646E-01
1.687500E-01 9.562500E-01 -8.536552E-01
0.000000E+00 7.500000E-01 -7.078573E-01
6.250000E-02 7.500000E-01 -6.929756E-01
1.250000E-01 7.500000E-01 -6.539631E-01
1.250000E-01 8.125000E-01 -7.676665E-01
0.000000E+00 8.125000E-01 -8.307630E-01
3.750000E-02 7.875000E-01 -7.782646E-01
8.125000E-02 7.937500E-01 -7.704892E-01
8.750000E-02 8.375000E-01 -8.381089E-01
4.375000E-02 8.312500E-01 -8.536552E-01
1.875000E-01 7.500000E-01 -5.876906E-01
2.500000E-01 7.500000E-01 -5.004126E-01
2.500000E-01 8.125000E-01 -5.876906E-01
1.625000E-01 7.875000E-01 -6.839196E-01
2.062500E-01 7.937500E-01 -6.347369E-01
2.125000E-01 8.375000E-01 -6.839196E-01
1.687500E-01 8.312500E-01 -7.433763E-01
3.125000E-01 8.750000E-01 -5.130179E-01
3.750000E-01 8.750000E-01 -3.537986E-01
3.750000E-01 9.375000E-01 -3.750379E-01
3.750000E-01 1.000000E+00 -3.829539E-01
3.125000E-01 1.000000E+00 -5.550278E-01
2.875000E-01 9.125000E-01 -5.947067E-01
3.312500E-01 9.187500E-01 -4.884842E-01
3.375000E-01 9.625000E-01 -4.841680E-01
2.937500E-01 9.562500E-01 -5.971106E-01
4.375000E-01 8.750000E-01 -1.802774E-01
5.000000E-01 8.750000E-01 2.222796E-04
5.000000E-01 9.375000E-01 -1.601766E-05
5.000000E-01 1.000000E+00 2.369398E-04
4.375000E-01 1.000000E+00 -1.948210E-01
4.125000E-01 9.125000E-01 -2.607878E-01
4.562500E-01 9.187500E-01 -1.321273E-01
4.625000E-01 9.625000E-01 -1.163803E-01
4.187500E-01 9.562500E-01 -2.496906E-01
3.125000E-01 7.500000E-01 -3.929004E-01
3.750000E-01 7.500000E-01 -2.706603E-01
3.750000E-01 8.125000E-01 -3.182382E-01
2.875000E-01 7.875000E-01 -4.854209E-01
3.312500E-01 7.937500E-01 -4.023332E-01
3.375000E-01 8.375000E-01 -4.256071E-01
2.937500E-01 8.312500E-01 -5.199112E-01
4.375000E-01 7.500000E-01 -1.382848E-01
5.000000E-01 7.500000E-01 3.030675E-04
5.000000E-01 8.125000E-01 -3.368699E-04
4.125000E-01 7.875000E-01 -2.130142E-01
4.562500E-01 7.937500E-01 -1.086745E-01
4.625000E-01 8.375000E-01 -1.025026E-01
4.187500E-01 8.312500E-01 -2.172958E-01
0.000000E+00 6.250000E-01 -3.829539E-01
6.250000E-02 6.250000E-01 -3.750379E-01
1.250000E-01 6.250000E-01 -3.537986E-01
1.250000E-01 6.875000E-01 -5.130179E-01
0.000000E+00 6.875000E-01 -5.550278E-01
3.750000E-02 6.625000E-01 -4.841680E-01
8.125000E-02 6.687500E-01 -4.884842E-01
8.750000E-02 7.125000E-01 -5.947067E-01
4.375000E-02 7.062500E-01 -5.971106E-01
1.875000E-01 6.250000E-01 -3.182382E-01
2.500000E-01 6.250000E-01 -2.706603E-01
2.500000E-01 6.875000E-01 -3.929004E-01
1.625000E-01 6.625000E-01 -4.256071E-01
2.062500E-01 6.687500E-01 -4.023332E-01
2.125000E-01 7.125000E-01 -4.854209E-01
1.687500E-01 7.062500E-01 -5.199112E-01
0.000000E+00 5.000000E-01 2.369398E-04
6.250000E-02 5.000000E-01 -1.601766E-05
1.250000E-01 5.000000E-01 2.222796E-04
1.250000E-01 5.625000E-01 -1.802774E-01
0.000000E+00 5.625000E-01 -1.948210E-01
3.750000E-02 5.375000E-01 -1.163803E-01
8.125000E-02 5.437500E-01 -1.321273E-01
8.750000E-02 5.875000E-01 -2.607878E-01
4.375000E-02 5.812500E-01 -2.496906E-01
1.875000E-01 5.000000E-01 -3.368699E-04
2.500000E-01 5.000000E-01 3.030675E-04
2.500000E-01 5.625000E-01 -1.382848E-01
1.625000E-01 5.375000E-01 -1.025026E-01
2.062500E-01 5.437500E-01 -1.086745E-01
2.125000E-01 5.875000E-01 -2.130142E-01
1.687500E-01 5.812500E-01 -2.172958E-01
3.125000E-01 6.250000E-01 -2.129414E-01
3.750000E-01 6.250000E-01 -1.462858E-01
3.750000E-01 6.875000E-01 -2.129414E-01
2.875000E-01 6.625000E-01 -3.022035E-01
3.312500E-01 6.687500E-01 -2.548935E-01
3.375000E-01 7.125000E-01 -3.022035E-01
2.937500E-01 7.062500E-01 -3.635221E-01
4.375000E-01 6.250000E-01 -7.520677E-02
5.000000E-01 6.250000E-01 3.715736E-04
5.000000E-01 6.875000E-01 -5.542926E-04
4.125000E-01 6.625000E-01 -1.327709E-01
4.562500E-01 6.687500E-01 -6.863372E-02
4.625000E-01 7.125000E-01 -7.296713E-02
4.187500E-01 7.062500E-01 -1.517732E-01
3.125000E-01 5.000000E-01 -5.542926E-04
3.750000E-01 5.000000E-01 3.715736E-04
3.750000E-01 5.625000E-01 -7.520677E-02
2.875000E-01 5.375000E-01 -7.296713E-02
3.312500E-01 5.437500E-01 -6.863372E-02
3.375000E-01 5.875000E-01 -1.327709E-01
2.937500E-01 5.812500E-01 -1.517732E-01
4.375000E-01 5.000000E-01 -6.652900E-04
5.000000E-01 5.000000E-01 3.976946E-04
5.000000E-01 5.625000E-01 -6.652900E-04
4.125000E-01 5.375000E-01 -3.229693E-02
4.562500E-01 5.437500E-01 -1.812499E-02
4.625000E-01 5.875000E-01 -3.229693E-02
4.187500E-01 5.812500E-01 -6.312043E-02
5.625000E-01 8.750000E-01 1.799048E-01
6.250000E-01 8.750000E-01 3.542062E-01
6.250000E-01 9.375000E-01 3.750027E-01
6.250000E-01 1.000000E+00 3.833853E-01
5.625000E-01 1.000000E+00 1.950376E-01
5.375000E-01 9.125000E-01 1.128265E-01
5.812500E-01 9.187500E-01 2.443392E-01
5.875000E-01 9.625000E-01 2.691185E-01
5.437500E-01 9.562500E-01 1.357340E-01
6.875000E-01 8.750000E-01 5.126943E-01
7.500000E-01 8.750000E-01 6.542590E-01
7.500000E-01 9.375000E-01 6.929187E-01
7.500000E-01 1.000000E+00 7.081528E-01
6.875000E-01 1.000000E+00 5.551955E-01
6.625000E-01 9.125000E-01 4.692588E-01
7.062500E-01 9.187500E-01 5.836001E-01
7.125000E-01 9.625000E-01 6.136372E-01
6.687500E-01 9.562500E-01 5.004875E-01
5.625000E-01 7.500000E-01 1.373867E-01
6.250000E-01 7.500000E-01 2.712231E-01
6.250000E-01 8.125000E-01 3.176156E-01
5.375000E-01 7.875000E-01 9.182364E-02
5.812500E-01 7.937500E-01 2.015298E-01
5.875000E-01 8.375000E-01 2.362054E-01
5.437500E-01 8.312500E-01 1.183995E-01
6.875000E-01 7.500000E-01 3.921457E-01
7.500000E-01 7.500000E-01 5.008574E-01
7.500000E-01 8.125000E-01 5.872140E-01
6.625000E-01 7.875000E-01 3.826833E-01
7.062500E-01 7.937500E-01 4.810541E-01
7.125000E-01 8.375000E-01 5.389513E-01
6.687500E-01 8.312500E-01 4.360684E-01
8.125000E-01 8.750000E-01 7.674205E-01
8.750000E-01 8.750000E-01 8.546923E-01
8.750000E-01 9.375000E-01 9.053038E-01
8.750000E-01 1.000000E+00 9.250562E-01
8.125000E-01 1.000000E+00 8.308037E-01
7.875000E-01 9.125000E-01 7.542368E-01
8.312500E-01 9.187500E-01 8.339907E-01
8.375000E-01 9.625000E-01 8.647028E-01
7.937500E-01 9.562500E-01 7.890263E-01
9.375000E-01 8.750000E-01 9.053038E-01
1.000000E+00 8.750000E-01 9.250562E-01
1.000000E+00 9.375000E-01 9.798114E-01
1.000000E+00 1.000000E+00 1.000716E+00
9.375000E-01 1.000000E+00 9.798114E-01
9.125000E-01 9.125000E-01 9.243520E-01
9.562500E-01 9.187500E-01 9.573667E-01
9.625000E-01 9.625000E-01 9.839895E-01
9.187500E-01 9.562500E-01 9.573667E-01
8.125000E-01 7.500000E-01 5.872140E-01
8.750000E-01 7.500000E-01 6.542590E-01
8.750000E-01 8.125000E-01 7.674205E-01
7.875000E-01 7.875000E-01 6.152867E-01
8.312500E-01 7.937500E-01 6.873476E-01
8.375000E-01 8.375000E-01 7.596439E-01
7.937500E-01 8.312500E-01 6.873476E-01
9.375000E-01 7.500000E-01 6.929187E-01
1.000000E+00 7.500000E-01 7.081528E-01
1.000000E+00 8.125000E-01 8.308037E-01
9.125000E-01 7.875000E-01 7.542368E-01
9.562500E-01 7.937500E-01 7.890263E-01
9.625000E-01 8.375000E-01 8.647028E-01
9.187500E-01 8.312500E-01 8.339907E-01
5.625000E-01 6.250000E-01 7.398558E-02
6.250000E-01 6.250000E-01 1.469794E-01
6.250000E-01 6.875000E-01 2.119225E-01
5.375000E-01 6.625000E-01 5.688324E-02
5.812500E-01 6.687500E-01 1.280813E-01
5.875000E-01 7.125000E-01 1.673825E-01
5.437500E-01 7.062500E-01 8.308802E-02
6.875000E-01 6.250000E-01 2.119225E-01
7.500000E-01 6.250000E-01 2.712231E-01
7.500000E-01 6.875000E-01 3.921457E-01
6.625000E-01 6.625000E-01 2.378839E-01
7.062500E-01 6.687500E-01 3.053049E-01
7.125000E-01 7.125000E-01 3.822558E-01
6.687500E-01 7.062500E-01 3.053049E-01
5.625000E-01 5.000000E-01 -6.652900E-04
6.250000E-01 5.000000E-01 3.715736E-04
6.250000E-01 5.625000E-01 7.398558E-02
5.375000E-01 5.375000E-01 1.330126E-02
5.812500E-01 5.437500E-01 3.515200E-02
5.875000E-01 5.875000E-01 7.310214E-02
5.437500E-01 5.812500E-01 3.515200E-02
6.875000E-01 5.000000E-01 -5.542926E-04
7.500000E-01 5.000000E-01 3.030675E-04
7.500000E-01 5.625000E-01 1.373867E-01
6.625000E-01 5.375000E-01 5.688324E-02
7.062500E-01 5.437500E-01 8.308802E-02
7.125000E-01 5.875000E-01 1.673825E-01
6.687500E-01 5.812500E-01 1.280813E-01
8.125000E-01 6.250000E-01 3.176156E-01
8.750000E-01 6.250000E-01 3.542062E-01
8.750000E-01 6.875000E-01 5.126943E-01
7.875000E-01 6.625000E-01 3.826833E-01
8.312500E-01 6.687500E-01 4.360684E-01
8.375000E-01 7.125000E-01 5.389513E-01
7.937500E-01 7.062500E-01 4.810541E-01
9.375000E-01 6.250000E-01 3.750027E-01
1.000000E+00 6.250000E-01 3.833853E-01
1.000000E+00 6.875000E-01 5.551955E-01
9.125000E-01 6.625000E-01 4.692588E-01
9.562500E-01 6.687500E-01 5.004875E-01
9.625000E-01 7.125000E-01 6.136372E-01
9.187500E-01 7.062500E-01 5.836001E-01
8.125000E-01 5.000000E-01 -3.368699E-04
8.750000E-01 5.000000E-01 2.222796E-04
8.750000E-01 5.625000E-01 1.799048E-01
7.875000E-01 5.375000E-01 9.182364E-02
8.312500E-01 5.437500E-01 1.183995E-01
8.375000E-01 5.875000E-01 2.362054E-01
7.937500E-01 5.812500E-01 2.015298E-01
9.375000E-01 5.000000E-01 -1.601766E-05
1.000000E+00 5.000000E-01 2.369398E-04
1.000000E+00 5.625000E-01 1.950376E-01
9.125000E-01 5.375000E-01 1.128265E-01
9.562500E-01 5.437500E-01 1.357340E-01
9.625000E-01 5.875000E-01 2.691185E-01
9.187500E-01 5.812500E-01 2.443392E-01
0.000000E+00 3.750000E-01 3.833853E-01
6.250000E-02 3.750000E-01 3.750027E-01
[...]
CELL_DATA 896
SCALARS sol float 1
LOOKUP_TABLE default
-9.281523E-01
-9.315479E-01
-9.530491E-01
-8.947199E-01
-9.565125E-01
-8.984244E-01
-9.714821E-01
-8.698227E-01
-8.657397E-01
-9.565125E-01
-8.984244E-01
-8.660485E-01
-9.874359E-01
-8.208943E-01
-8.207511E-01
-9.714821E-01
-9.315479E-01
-8.660485E-01
-8.201190E-01
-9.874359E-01
-8.008030E-01
-7.722950E-01
-7.920882E-01
-9.530491E-01
-9.281523E-01
-8.201190E-01
-8.657397E-01
-7.885415E-01
-7.472432E-01
-7.263658E-01
-7.307063E-01
-8.947199E-01
-7.920882E-01
-7.885415E-01
-8.207511E-01
-7.316541E-01
-7.058093E-01
-6.659812E-01
-7.018497E-01
-8.698227E-01
-7.307063E-01
-7.316541E-01
-8.008030E-01
-6.873443E-01
-6.472151E-01
-6.199986E-01
-6.282643E-01
-6.418578E-01
-8.208943E-01
-7.058093E-01
-7.018497E-01
-6.873443E-01
-7.472432E-01
-6.354490E-01
-5.872292E-01
-5.454355E-01
-5.601005E-01
-5.871883E-01
-7.722950E-01
-6.472151E-01
-6.418578E-01
-6.354490E-01
-7.263658E-01
-5.742800E-01
-5.320696E-01
-5.622974E-01
-5.232543E-01
-4.740499E-01
-5.310076E-01
-5.872292E-01
-6.282643E-01
-5.871883E-01
-5.742800E-01
-6.659812E-01
-5.245080E-01
-4.517669E-01
-4.861787E-01
-4.492300E-01
-4.140532E-01
-4.692218E-01
-5.320696E-01
-5.622974E-01
-5.601005E-01
-5.310076E-01
-5.245080E-01
-6.199986E-01
-4.595780E-01
-4.057736E-01
-4.308079E-01
-4.492838E-01
-3.358941E-01
-4.268848E-01
-4.517669E-01
-4.861787E-01
-5.232543E-01
-4.692218E-01
-4.595780E-01
-5.454355E-01
-4.189450E-01
-3.298748E-01
-3.658813E-01
-3.820595E-01
-2.758218E-01
-2.951721E-01
-3.552980E-01
-4.057736E-01
-4.308079E-01
-4.492838E-01
-4.492300E-01
-4.268848E-01
-4.189450E-01
-4.740499E-01
-3.528753E-01
-2.649546E-01
-2.964442E-01
-3.304106E-01
-1.869640E-01
-2.142019E-01
-3.219214E-01
-3.298748E-01
-3.658813E-01
-3.820595E-01
-4.140532E-01
-3.552980E-01
-3.528753E-01
-3.068730E-01
-2.504573E-01
-1.910642E-01
-2.495161E-01
-2.673042E-01
-1.660661E-01
-1.036548E-01
-2.619351E-01
-2.649546E-01
-2.951721E-01
-2.964442E-01
-3.304106E-01
-3.358941E-01
-3.219214E-01
-3.068730E-01
-2.566795E-01
-1.666919E-01
-1.040608E-01
-1.796615E-01
-2.073198E-01
-8.284121E-02
-3.871979E-02
-2.117916E-01
-1.910642E-01
-2.504573E-01
-2.142019E-01
-2.495161E-01
-2.673042E-01
-2.758218E-01
-2.619351E-01
-2.566795E-01
-2.047069E-01
-1.428243E-01
-9.418591E-02
-4.397369E-02
-1.533245E-01
-1.869061E-01
4.531830E-02
-1.658285E-01
-1.040608E-01
-1.666919E-01
-1.660661E-01
-1.796615E-01
-2.073198E-01
-1.869640E-01
-2.117916E-01
-2.047069E-01
-1.639994E-01
-7.050466E-02
-3.420574E-02
3.767759E-02
-8.221875E-02
-1.210084E-01
1.103362E-01
8.284816E-02
-1.177259E-01
-4.397369E-02
-9.418591E-02
-1.428243E-01
-8.284121E-02
-1.533245E-01
-1.869061E-01
-1.036548E-01
-1.658285E-01
-1.639994E-01
-1.180878E-01
-3.623609E-02
3.942831E-02
9.765121E-02
-7.031630E-02
-9.779135E-02
1.999634E-01
1.642999E-01
-9.220379E-02
3.767759E-02
-3.420574E-02
-7.050466E-02
-3.871979E-02
-8.221875E-02
-1.210084E-01
-1.177259E-01
-1.180878E-01
-9.487101E-02
3.059661E-02
9.950888E-02
6.996210E-02
1.790235E-01
-2.440612E-02
-4.738505E-02
2.163972E-01
2.825138E-01
-4.782297E-02
9.765121E-02
8.284816E-02
3.942831E-02
-3.623609E-02
4.531830E-02
-7.031630E-02
-9.779135E-02
-9.220379E-02
-9.487101E-02
-5.687471E-02
7.650446E-02
1.781699E-01
1.372510E-01
2.594834E-01
2.761227E-02
-2.293881E-02
2.961535E-01
3.425022E-01
-3.571071E-02
1.790235E-01
9.950888E-02
1.642999E-01
6.996210E-02
3.059661E-02
1.103362E-01
-2.440612E-02
-4.738505E-02
-4.782297E-02
-5.687471E-02
-3.784745E-02
7.359259E-02
1.435800E-01
1.853782E-01
2.567721E-01
3.245160E-01
4.647232E-02
1.890017E-02
4.196252E-01
-1.086355E-02
2.594834E-01
1.781699E-01
2.163972E-01
1.372510E-01
7.650446E-02
1.999634E-01
2.761227E-02
-2.293881E-02
-3.571071E-02
-3.784745E-02
-1.702907E-02
1.292857E-01
2.033799E-01
2.517836E-01
3.026757E-01
3.994892E-01
8.935086E-02
4.374680E-02
4.796894E-01
4.482497E-01
1.161943E-02
3.245160E-01
2.567721E-01
1.853782E-01
2.961535E-01
1.435800E-01
7.359259E-02
2.825138E-01
4.647232E-02
1.890017E-02
-1.086355E-02
-1.702907E-02
-6.130863E-03
1.261839E-01
1.919974E-01
2.634561E-01
3.692967E-01
4.453864E-01
8.631671E-02
3.650305E-02
5.564401E-01
5.177821E-01
1.592932E-02
3.994892E-01
3.026757E-01
2.517836E-01
3.425022E-01
2.033799E-01
1.292857E-01
8.935086E-02
4.374680E-02
1.161943E-02
-6.130863E-03
4.344554E-03
1.691288E-01
2.168427E-01
3.238407E-01
4.343229E-01
3.787891E-01
5.218511E-01
1.163488E-01
6.074657E-02
5.659083E-01
6.256618E-01
2.786842E-02
4.453864E-01
4.482497E-01
3.692967E-01
2.634561E-01
4.196252E-01
1.919974E-01
1.261839E-01
8.631671E-02
3.650305E-02
1.592932E-02
4.344554E-03
4.344554E-03
1.623277E-01
2.628168E-01
3.486840E-01
4.959047E-01
4.332686E-01
5.835178E-01
9.802236E-02
4.780204E-02
6.300520E-01
6.715696E-01
1.592932E-02
5.218511E-01
4.343229E-01
5.177821E-01
3.787891E-01
3.238407E-01
4.796894E-01
2.168427E-01
1.691288E-01
1.163488E-01
6.074657E-02
2.786842E-02
4.344554E-03
-6.130863E-03
1.989286E-01
3.228912E-01
2.517037E-01
4.186277E-01
4.853579E-01
5.686349E-01
6.435926E-01
9.802236E-02
6.074657E-02
7.300326E-01
1.161943E-02
5.835178E-01
4.959047E-01
5.659083E-01
4.332686E-01
3.486840E-01
5.564401E-01
2.628168E-01
1.623277E-01
9.802236E-02
4.780204E-02
1.592932E-02
-6.130863E-03
-1.702907E-02
1.989286E-01
3.599021E-01
2.828312E-01
4.580190E-01
5.357398E-01
5.934748E-01
7.004715E-01
1.163488E-01
3.650305E-02
7.759943E-01
7.453940E-01
-1.086355E-02
6.435926E-01
5.686349E-01
4.853579E-01
6.300520E-01
4.186277E-01
3.228912E-01
6.256618E-01
2.517037E-01
1.989286E-01
9.802236E-02
6.074657E-02
1.161943E-02
-1.702907E-02
-3.784745E-02
1.623277E-01
2.517037E-01
3.309552E-01
4.250863E-01
5.230418E-01
6.429402E-01
7.253055E-01
8.631671E-02
4.374680E-02
8.281776E-01
7.924179E-01
-3.571071E-02
7.004715E-01
5.934748E-01
5.357398E-01
6.715696E-01
4.580190E-01
3.599021E-01
2.828312E-01
1.989286E-01
1.163488E-01
3.650305E-02
-1.086355E-02
-3.784745E-02
-5.687471E-02
1.691288E-01
2.628168E-01
3.599021E-01
4.250863E-01
5.677860E-01
7.030091E-01
6.299495E-01
7.852160E-01
8.935086E-02
1.890017E-02
8.292399E-01
8.735209E-01
-4.782297E-02
7.253055E-01
7.453940E-01
6.429402E-01
5.230418E-01
7.300326E-01
4.250863E-01
3.309552E-01
2.517037E-01
1.623277E-01
8.631671E-02
4.374680E-02
-3.571071E-02
-5.687471E-02
-9.487101E-02
1.261839E-01
2.168427E-01
3.228912E-01
4.580190E-01
5.677860E-01
7.381374E-01
6.633273E-01
8.187012E-01
4.647232E-02
-2.293881E-02
8.679991E-01
8.983543E-01
-9.220379E-02
7.852160E-01
7.030091E-01
7.924179E-01
6.299495E-01
5.677860E-01
7.759943E-01
4.250863E-01
3.599021E-01
2.628168E-01
1.691288E-01
8.935086E-02
1.890017E-02
-4.782297E-02
-9.487101E-02
-1.180878E-01
1.292857E-01
1.919974E-01
3.486840E-01
5.230418E-01
4.186277E-01
6.299495E-01
7.114464E-01
7.939189E-01
8.646623E-01
2.761227E-02
-4.738505E-02
9.292422E-01
-1.177259E-01
8.187012E-01
7.381374E-01
8.292399E-01
6.633273E-01
5.677860E-01
8.281776E-01
4.580190E-01
3.228912E-01
2.168427E-01
1.261839E-01
4.647232E-02
-2.293881E-02
-9.220379E-02
-1.180878E-01
-1.639994E-01
7.359259E-02
2.033799E-01
3.238407E-01
5.357398E-01
4.332686E-01
6.429402E-01
7.381374E-01
7.939189E-01
8.947827E-01
-2.440612E-02
-9.779135E-02
9.540781E-01
9.290075E-01
-1.658285E-01
8.646623E-01
7.939189E-01
7.114464E-01
8.679991E-01
6.299495E-01
5.230418E-01
8.735209E-01
4.186277E-01
3.486840E-01
1.919974E-01
1.292857E-01
2.761227E-02
-4.738505E-02
-1.177259E-01
-1.639994E-01
-2.047069E-01
7.650446E-02
2.634561E-01
1.435800E-01
3.787891E-01
4.853579E-01
5.934748E-01
7.030091E-01
8.187012E-01
8.947827E-01
-7.031630E-02
-1.210084E-01
9.737226E-01
9.463618E-01
-2.117916E-01
8.947827E-01
7.939189E-01
7.381374E-01
8.983543E-01
6.429402E-01
5.357398E-01
4.332686E-01
3.238407E-01
2.033799E-01
7.359259E-02
-2.440612E-02
-9.779135E-02
-1.658285E-01
-2.047069E-01
-2.566795E-01
3.059661E-02
2.517836E-01
1.372510E-01
3.692967E-01
4.959047E-01
5.686349E-01
7.253055E-01
8.646623E-01
7.852160E-01
9.290075E-01
-8.221875E-02
-1.869061E-01
9.662410E-01
9.881724E-01
-2.619351E-01
8.947827E-01
9.290075E-01
8.187012E-01
7.030091E-01
9.292422E-01
5.934748E-01
4.853579E-01
3.787891E-01
2.634561E-01
1.435800E-01
7.650446E-02
-7.031630E-02
-1.210084E-01
-2.117916E-01
-2.566795E-01
-3.068730E-01
6.996210E-02
-3.623609E-02
1.853782E-01
3.026757E-01
4.343229E-01
5.835178E-01
7.004715E-01
8.679991E-01
7.924179E-01
9.292422E-01
-1.533245E-01
-2.073198E-01
9.737226E-01
9.881724E-01
-3.219214E-01
9.290075E-01
8.646623E-01
9.463618E-01
7.852160E-01
7.253055E-01
9.540781E-01
5.686349E-01
4.959047E-01
3.692967E-01
2.517836E-01
1.372510E-01
3.059661E-02
-8.221875E-02
-1.869061E-01
-2.619351E-01
-3.068730E-01
-3.528753E-01
3.942831E-02
-7.050466E-02
1.781699E-01
2.567721E-01
4.453864E-01
6.435926E-01
5.218511E-01
7.453940E-01
8.292399E-01
8.983543E-01
9.540781E-01
-1.796615E-01
-2.673042E-01
-3.552980E-01
9.292422E-01
8.679991E-01
9.662410E-01
7.924179E-01
7.004715E-01
9.737226E-01
5.835178E-01
4.343229E-01
3.026757E-01
1.853782E-01
6.996210E-02
-3.623609E-02
-1.533245E-01
-2.073198E-01
-3.219214E-01
-3.528753E-01
-4.189450E-01
9.950888E-02
-3.420574E-02
-1.428243E-01
2.594834E-01
3.994892E-01
6.300520E-01
5.177821E-01
7.300326E-01
8.281776E-01
8.735209E-01
-2.495161E-01
-3.304106E-01
-4.268848E-01
9.540781E-01
8.983543E-01
8.292399E-01
9.737226E-01
7.453940E-01
6.435926E-01
9.881724E-01
5.218511E-01
4.453864E-01
2.567721E-01
1.781699E-01
3.942831E-02
-7.050466E-02
-1.796615E-01
-2.673042E-01
-3.552980E-01
-4.189450E-01
-4.595780E-01
9.765121E-02
-9.418591E-02
-1.666919E-01
3.245160E-01
1.790235E-01
4.482497E-01
5.659083E-01
6.715696E-01
7.759943E-01
-2.964442E-01
-3.820595E-01
-4.692218E-01
8.735209E-01
8.281776E-01
9.881724E-01
7.300326E-01
6.300520E-01
5.177821E-01
3.994892E-01
2.594834E-01
9.950888E-02
-3.420574E-02
-1.428243E-01
-2.495161E-01
-3.304106E-01
-4.268848E-01
-4.595780E-01
-5.245080E-01
3.767759E-02
-1.040608E-01
-2.504573E-01
2.961535E-01
1.642999E-01
4.196252E-01
5.564401E-01
6.256618E-01
-3.658813E-01
-4.492838E-01
-5.310076E-01
7.759943E-01
6.715696E-01
5.659083E-01
4.482497E-01
3.245160E-01
1.790235E-01
9.765121E-02
-9.418591E-02
-1.666919E-01
-2.964442E-01
-3.820595E-01
-4.692218E-01
-5.245080E-01
-5.742800E-01
8.284816E-02
-4.397369E-02
-1.910642E-01
-2.649546E-01
2.163972E-01
3.425022E-01
4.796894E-01
-4.308079E-01
-4.861787E-01
-5.871883E-01
6.256618E-01
5.564401E-01
4.196252E-01
2.961535E-01
1.642999E-01
3.767759E-02
-1.040608E-01
-2.504573E-01
-3.658813E-01
-4.492838E-01
-5.310076E-01
-5.742800E-01
-6.354490E-01
4.531830E-02
-8.284121E-02
-2.142019E-01
-3.298748E-01
1.999634E-01
2.825138E-01
-4.517669E-01
-5.622974E-01
-6.418578E-01
4.796894E-01
3.425022E-01
2.163972E-01
8.284816E-02
-4.397369E-02
-1.910642E-01
-2.649546E-01
-4.308079E-01
-4.861787E-01
-5.871883E-01
-6.354490E-01
-6.873443E-01
1.103362E-01
-3.871979E-02
-1.660661E-01
-2.951721E-01
-4.057736E-01
-5.320696E-01
-5.872292E-01
-7.018497E-01
2.825138E-01
1.999634E-01
4.531830E-02
-8.284121E-02
-2.142019E-01
-3.298748E-01
-4.517669E-01
-5.622974E-01
-6.418578E-01
-6.873443E-01
-7.316541E-01
-1.036548E-01
-1.869640E-01
-3.358941E-01
-4.492300E-01
-5.601005E-01
-6.472151E-01
-7.307063E-01
1.103362E-01
-3.871979E-02
-1.660661E-01
-2.951721E-01
-4.057736E-01
-5.320696E-01
-5.872292E-01
-7.018497E-01
-7.316541E-01
-7.885415E-01
-2.758218E-01
-4.140532E-01
-5.232543E-01
-6.282643E-01
-7.058093E-01
-7.920882E-01
-1.036548E-01
-1.869640E-01
-3.358941E-01
-4.492300E-01
-5.601005E-01
-6.472151E-01
-7.307063E-01
-7.885415E-01
-8.201190E-01
-4.740499E-01
-5.454355E-01
-6.659812E-01
-7.472432E-01
-8.207511E-01
-2.758218E-01
-4.140532E-01
-5.232543E-01
-6.282643E-01
-7.058093E-01
-7.920882E-01
-8.201190E-01
-8.660485E-01
-6.199986E-01
-7.263658E-01
-8.008030E-01
-8.657397E-01
-4.740499E-01
-5.454355E-01
-6.659812E-01
-7.472432E-01
-8.207511E-01
-8.660485E-01
-8.984244E-01
-7.722950E-01
-8.208943E-01
-8.947199E-01
-6.199986E-01
-7.263658E-01
-8.008030E-01
-8.657397E-01
-8.984244E-01
-9.315479E-01
-8.698227E-01
-9.281523E-01
-7.722950E-01
-8.208943E-01
-8.947199E-01
-9.315479E-01
-9.565125E-01
-9.530491E-01
-8.698227E-01
-9.281523E-01
-9.565125E-01
-9.714821E-01
-9.530491E-01
-9.714821E-01
-9.874359E-01
-9.874359E-01
