# vtk DataFile Version 2.0
Grille
ASCII
DATASET POLYDATA
POINTS 481 float
0.000000E+00 8.750000E-01 -8.022478E-01
6.250000E-02 8.750000E-01 -7.852460E-01
1.250000E-01 8.750000E-01 -7.411071E-01
1.250000E-01 9.375000E-01 -7.852460E-01
1.250000E-01 1.000000E+00 -8.022478E-01
6.250000E-02 1.000000E+00 -8.500516E-01
0.000000E+00 1.000000E+00 -8.688530E-01
0.000000E+00 9.375000E-01 -8.500516E-01
3.750000E-02 9.125000E-01 -8.273248E-01
8.125000E-02 9.187500E-01 -8.110864E-01
8.750000E-02 9.625000E-01 -8.273248E-01
4.375000E-02 9.562500E-01 -8.502279E-01
1.875000E-01 8.750000E-01 -6.656976E-01
2.500000E-01 8.750000E-01 -5.670479E-01
2.500000E-01 9.375000E-01 -6.008927E-01
2.500000E-01 1.000000E+00 -6.138039E-01
1.875000E-01 1.000000E+00 -7.204397E-01
1.625000E-01 9.125000E-01 -7.268142E-01
2.062500E-01 9.187500E-01 -6.681457E-01
2.125000E-01 9.625000E-01 -6.748908E-01
1.687500E-01 9.562500E-01 -7.403019E-01
0.000000E+00 7.500000E-01 -6.138039E-01
6.250000E-02 7.500000E-01 -6.008927E-01
1.250000E-01 7.500000E-01 -5.670479E-01
1.250000E-01 8.125000E-01 -6.656976E-01
0.000000E+00 8.125000E-01 -7.204397E-01
3.750000E-02 7.875000E-01 -6.748908E-01
8.125000E-02 7.937500E-01 -6.681457E-01
8.750000E-02 8.375000E-01 -7.268142E-01
4.375000E-02 8.312500E-01 -7.403019E-01
1.875000E-01 7.500000E-01 -5.095538E-01
2.500000E-01 7.500000E-01 -4.338365E-01
2.500000E-01 8.125000E-01 -5.095538E-01
1.625000E-01 7.875000E-01 -5.930397E-01
2.062500E-01 7.937500E-01 -5.503707E-01
2.125000E-01 8.375000E-01 -5.930397E-01
1.687500E-01 8.312500E-01 -6.446236E-01
3.125000E-01 8.750000E-01 -4.447645E-01
3.750000E-01 8.750000E-01 -3.066282E-01
3.750000E-01 9.375000E-01 -3.250501E-01
3.750000E-01 1.000000E+00 -3.319168E-01
3.125000E-01 1.000000E+00 -4.812066E-01
2.875000E-01 9.125000E-01 -5.156346E-01
3.312500E-01 9.187500E-01 -4.234763E-01
3.375000E-01 9.625000E-01 -4.197295E-01
2.937500E-01 9.562500E-01 -5.177182E-01
4.375000E-01 8.750000E-01 -1.560857E-01
5.000000E-01 8.750000E-01 5.097237E-04
5.000000E-01 9.375000E-01 3.087974E-04
5.000000E-01 1.000000E+00 5.296394E-04
4.375000E-01 1.000000E+00 -1.686956E-01
4.125000E-01 9.125000E-01 -2.259304E-01
4.562500E-01 9.187500E-01 -1.143081E-01
4.625000E-01 9.625000E-01 -1.006438E-01
4.187500E-01 9.562500E-01 -2.162997E-01
3.125000E-01 7.500000E-01 -3.405646E-01
3.750000E-01 7.500000E-01 -2.345151E-01
3.750000E-01 8.125000E-01 -2.757842E-01
2.875000E-01 7.875000E-01 -4.208289E-01
3.312500E-01 7.937500E-01 -3.487447E-01
3.375000E-01 8.375000E-01 -3.689318E-01
2.937500E-01 8.312500E-01 -4.507481E-01
4.375000E-01 7.500000E-01 -1.196721E-01
5.000000E-01 7.500000E-01 5.611795E-04
5.000000E-01 8.125000E-01 1.571152E-05
4.125000E-01 7.875000E-01 -1.844987E-01
4.562500E-01 7.937500E-01 -9.397701E-02
4.625000E-01 8.375000E-01 -8.861596E-02
4.187500E-01 8.312500E-01 -1.882069E-01
0.000000E+00 6.250000E-01 -3.319168E-01
6.250000E-02 6.250000E-01 -3.250501E-01
1.250000E-01 6.250000E-01 -3.066282E-01
1.250000E-01 6.875000E-01 -4.447645E-01
0.000000E+00 6.875000E-01 -4.812066E-01
3.750000E-02 6.625000E-01 -4.197295E-01
8.125000E-02 6.687500E-01 -4.234763E-01
8.750000E-02 7.125000E-01 -5.156346E-01
4.375000E-02 7.062500E-01 -5.177182E-01
1.875000E-01 6.250000E-01 -2.757842E-01
2.500000E-01 6.250000E-01 -2.345151E-01
2.500000E-01 6.875000E-01 -3.405646E-01
1.625000E-01 6.625000E-01 -3.689318E-01
2.062500E-01 6.687500E-01 -3.487447E-01
2.125000E-01 7.125000E-01 -4.208289E-01
1.687500E-01 7.062500E-01 -4.507481E-01
0.000000E+00 5.000000E-01 5.296394E-04
6.250000E-02 5.000000E-01 3.087974E-04
1.250000E-01 5.000000E-01 5.097237E-04
1.250000E-01 5.625000E-01 -1.560857E-01
0.000000E+00 5.625000E-01 -1.686956E-01
3.750000E-02 5.375000E-01 -1.006438E-01
8.125000E-02 5.437500E-01 -1.143081E-01
8.750000E-02 5.875000E-01 -2.259304E-01
4.375000E-02 5.812500E-01 -2.162997E-01
1.875000E-01 5.000000E-01 1.571152E-05
2.500000E-01 5.000000E-01 5.611795E-04
2.500000E-01 5.625000E-01 -1.196721E-01
1.625000E-01 5.375000E-01 -8.861596E-02
2.062500E-01 5.437500E-01 -9.397701E-02
2.125000E-01 5.875000E-01 -1.844987E-01
1.687500E-01 5.812500E-01 -1.882069E-01
3.125000E-01 6.250000E-01 -1.844475E-01
3.750000E-01 6.250000E-01 -1.266254E-01
3.750000E-01 6.875000E-01 -1.844475E-01
2.875000E-01 6.625000E-01 -2.618835E-01
3.312500E-01 6.687500E-01 -2.208427E-01
3.375000E-01 7.125000E-01 -2.618835E-01
2.937500E-01 7.062500E-01 -3.150789E-01
4.375000E-01 6.250000E-01 -6.496349E-02
5.000000E-01 6.250000E-01 6.040792E-04
5.000000E-01 6.875000E-01 -1.918472E-04
4.125000E-01 6.625000E-01 -1.148989E-01
4.562500E-01 6.687500E-01 -5.925701E-02
4.625000E-01 7.125000E-01 -6.301069E-02
4.187500E-01 7.062500E-01 -1.313794E-01
3.125000E-01 5.000000E-01 -1.918472E-04
3.750000E-01 5.000000E-01 6.040792E-04
3.750000E-01 5.625000E-01 -6.496349E-02
2.875000E-01 5.375000E-01 -6.301069E-02
3.312500E-01 5.437500E-01 -5.925701E-02
3.375000E-01 5.875000E-01 -1.148989E-01
2.937500E-01 5.812500E-01 -1.313794E-01
4.375000E-01 5.000000E-01 -3.001036E-04
5.000000E-01 5.000000E-01 6.204571E-04
5.000000E-01 5.625000E-01 -3.001036E-04
4.125000E-01 5.375000E-01 -2.774033E-02
4.562500E-01 5.437500E-01 -1.544752E-02
4.625000E-01 5.875000E-01 -2.774033E-02
4.187500E-01 5.812500E-01 -5.447994E-02
5.625000E-01 8.750000E-01 1.563943E-01
6.250000E-01 8.750000E-01 3.076092E-01
6.250000E-01 9.375000E-01 3.256558E-01
6.250000E-01 1.000000E+00 3.329293E-01
5.625000E-01 1.000000E+00 1.695305E-01
5.375000E-01 9.125000E-01 9.820439E-02
5.812500E-01 9.187500E-01 2.122982E-01
5.875000E-01 9.625000E-01 2.337979E-01
5.437500E-01 9.562500E-01 1.180810E-01
6.875000E-01 8.750000E-01 4.451033E-01
7.500000E-01 8.750000E-01 5.679148E-01
7.500000E-01 9.375000E-01 6.014551E-01
7.500000E-01 1.000000E+00 6.146715E-01
6.875000E-01 1.000000E+00 4.819797E-01
6.625000E-01 9.125000E-01 4.074247E-01
7.062500E-01 9.187500E-01 5.066186E-01
7.125000E-01 9.625000E-01 5.326779E-01
6.687500E-01 9.562500E-01 4.345188E-01
5.625000E-01 7.500000E-01 1.194898E-01
6.250000E-01 7.500000E-01 2.356019E-01
6.250000E-01 8.125000E-01 2.758576E-01
5.375000E-01 7.875000E-01 7.996688E-02
5.812500E-01 7.937500E-01 1.751440E-01
5.875000E-01 8.375000E-01 2.052330E-01
5.437500E-01 8.312500E-01 1.030297E-01
6.875000E-01 7.500000E-01 3.405108E-01
7.500000E-01 7.500000E-01 4.348264E-01
7.500000E-01 8.125000E-01 5.097476E-01
6.625000E-01 7.875000E-01 3.323049E-01
7.062500E-01 7.937500E-01 4.176473E-01
7.125000E-01 8.375000E-01 4.678790E-01
6.687500E-01 8.312500E-01 3.786236E-01
8.125000E-01 8.750000E-01 6.660839E-01
8.750000E-01 8.750000E-01 7.417927E-01
8.750000E-01 9.375000E-01 7.856975E-01
8.750000E-01 1.000000E+00 8.028324E-01
8.125000E-01 1.000000E+00 7.210706E-01
7.875000E-01 9.125000E-01 6.546482E-01
8.312500E-01 9.187500E-01 7.238342E-01
8.375000E-01 9.625000E-01 7.504771E-01
7.937500E-01 9.562500E-01 6.848290E-01
9.375000E-01 8.750000E-01 7.856975E-01
1.000000E+00 8.750000E-01 8.028324E-01
1.000000E+00 9.375000E-01 8.503304E-01
1.000000E+00 1.000000E+00 8.684645E-01
9.375000E-01 1.000000E+00 8.503304E-01
9.125000E-01 9.125000E-01 8.022213E-01
9.562500E-01 9.187500E-01 8.308605E-01
9.625000E-01 9.625000E-01 8.539546E-01
9.187500E-01 9.562500E-01 8.308605E-01
8.125000E-01 7.500000E-01 5.097476E-01
8.750000E-01 7.500000E-01 5.679148E-01
8.750000E-01 8.125000E-01 6.660839E-01
7.875000E-01 7.875000E-01 5.341016E-01
8.312500E-01 7.937500E-01 5.966179E-01
8.375000E-01 8.375000E-01 6.593367E-01
7.937500E-01 8.312500E-01 5.966179E-01
9.375000E-01 7.500000E-01 6.014551E-01
1.000000E+00 7.500000E-01 6.146715E-01
1.000000E+00 8.125000E-01 7.210706E-01
9.125000E-01 7.875000E-01 6.546482E-01
9.562500E-01 7.937500E-01 6.848290E-01
9.625000E-01 8.375000E-01 7.504771E-01
9.187500E-01 8.312500E-01 7.238342E-01
5.625000E-01 6.250000E-01 6.446997E-02
6.250000E-01 6.250000E-01 1.278001E-01
6.250000E-01 6.875000E-01 1.841479E-01
5.375000E-01 6.625000E-01 4.963614E-02
5.812500E-01 6.687500E-01 1.114065E-01
5.875000E-01 7.125000E-01 1.455081E-01
5.437500E-01 7.062500E-01 7.237611E-02
6.875000E-01 6.250000E-01 1.841479E-01
7.500000E-01 6.250000E-01 2.356019E-01
7.500000E-01 6.875000E-01 3.405108E-01
6.625000E-01 6.625000E-01 2.066713E-01
7.062500E-01 6.687500E-01 2.651668E-01
7.125000E-01 7.125000E-01 3.319290E-01
6.687500E-01 7.062500E-01 2.651668E-01
5.625000E-01 5.000000E-01 -3.001036E-04
6.250000E-01 5.000000E-01 6.040792E-04
6.250000E-01 5.625000E-01 6.446997E-02
5.375000E-01 5.375000E-01 1.181650E-02
5.812500E-01 5.437500E-01 3.077549E-02
5.875000E-01 5.875000E-01 6.370193E-02
5.437500E-01 5.812500E-01 3.077549E-02
6.875000E-01 5.000000E-01 -1.918472E-04
7.500000E-01 5.000000E-01 5.611795E-04
7.500000E-01 5.625000E-01 1.194898E-01
6.625000E-01 5.375000E-01 4.963614E-02
7.062500E-01 5.437500E-01 7.237611E-02
7.125000E-01 5.875000E-01 1.455081E-01
6.687500E-01 5.812500E-01 1.114065E-01
8.125000E-01 6.250000E-01 2.758576E-01
8.750000E-01 6.250000E-01 3.076092E-01
8.750000E-01 6.875000E-01 4.451033E-01
7.875000E-01 6.625000E-01 3.323049E-01
8.312500E-01 6.687500E-01 3.786236E-01
8.375000E-01 7.125000E-01 4.678790E-01
7.937500E-01 7.062500E-01 4.176473E-01
9.375000E-01 6.250000E-01 3.256558E-01
1.000000E+00 6.250000E-01 3.329293E-01
1.000000E+00 6.875000E-01 4.819797E-01
9.125000E-01 6.625000E-01 4.074247E-01
9.562500E-01 6.687500E-01 4.345188E-01
9.625000E-01 7.125000E-01 5.326779E-01
9.187500E-01 7.062500E-01 5.066186E-01
8.125000E-01 5.000000E-01 1.571152E-05
8.750000E-01 5.000000E-01 5.097237E-04
8.750000E-01 5.625000E-01 1.563943E-01
7.875000E-01 5.375000E-01 7.996688E-02
8.312500E-01 5.437500E-01 1.030297E-01
8.375000E-01 5.875000E-01 2.052330E-01
7.937500E-01 5.812500E-01 1.751440E-01
9.375000E-01 5.000000E-01 3.087974E-04
1.000000E+00 5.000000E-01 5.296394E-04
1.000000E+00 5.625000E-01 1.695305E-01
9.125000E-01 5.375000E-01 9.820439E-02
9.562500E-01 5.437500E-01 1.180810E-01
9.625000E-01 5.875000E-01 2.337979E-01
9.187500E-01 5.812500E-01 2.122982E-01
0.000000E+00 3.750000E-01 3.329293E-01
6.250000E-02 3.750000E-01 3.256558E-01
[...]
CELL_DATA 896
SCALARS sol float 1
LOOKUP_TABLE default
-8.049395E-01
-8.078857E-01
-8.265414E-01
-7.759319E-01
-8.295463E-01
-7.791465E-01
-8.425347E-01
-7.543298E-01
-7.507874E-01
-8.295463E-01
-7.791465E-01
-7.510558E-01
-8.563775E-01
-7.118775E-01
-7.117540E-01
-8.425347E-01
-8.078857E-01
-7.510558E-01
-7.112063E-01
-8.563775E-01
-6.944462E-01
-6.697115E-01
-6.868859E-01
-8.265414E-01
-8.049395E-01
-7.112063E-01
-7.507874E-01
-6.838095E-01
-6.479764E-01
-6.298625E-01
-6.336304E-01
-7.759319E-01
-6.868859E-01
-6.838095E-01
-7.117540E-01
-6.344537E-01
-6.120288E-01
-5.774716E-01
-6.085951E-01
-7.543298E-01
-6.336304E-01
-6.344537E-01
-6.944462E-01
-5.960113E-01
-5.611917E-01
-5.375762E-01
-5.447485E-01
-5.565471E-01
-7.118775E-01
-6.120288E-01
-6.085951E-01
-5.960113E-01
-6.479764E-01
-5.509881E-01
-5.091490E-01
-4.728848E-01
-4.856097E-01
-5.091166E-01
-6.697115E-01
-5.611917E-01
-5.565471E-01
-5.509881E-01
-6.298625E-01
-4.979203E-01
-4.612918E-01
-4.875202E-01
-4.536413E-01
-4.109510E-01
-4.603769E-01
-5.091490E-01
-5.447485E-01
-5.091166E-01
-4.979203E-01
-5.774716E-01
-4.547397E-01
-3.916230E-01
-4.214815E-01
-3.894186E-01
-3.588988E-01
-4.067739E-01
-4.612918E-01
-4.875202E-01
-4.856097E-01
-4.603769E-01
-4.547397E-01
-5.375762E-01
-3.984100E-01
-3.517182E-01
-3.734415E-01
-3.894749E-01
-2.910889E-01
-3.700460E-01
-3.916230E-01
-4.214815E-01
-4.536413E-01
-4.067739E-01
-3.984100E-01
-4.728848E-01
-3.631600E-01
-2.858696E-01
-3.171148E-01
-3.311536E-01
-2.389707E-01
-2.557601E-01
-3.079414E-01
-3.517182E-01
-3.734415E-01
-3.894749E-01
-3.894186E-01
-3.700460E-01
-3.631600E-01
-4.109510E-01
-3.058423E-01
-2.295481E-01
-2.568731E-01
-2.863480E-01
-1.618797E-01
-1.855127E-01
-2.789877E-01
-2.858696E-01
-3.171148E-01
-3.311536E-01
-3.588988E-01
-3.079414E-01
-3.058423E-01
-2.659350E-01
-2.169736E-01
-1.654414E-01
-2.161633E-01
-2.315993E-01
-1.437505E-01
-8.960324E-02
-2.269487E-01
-2.295481E-01
-2.557601E-01
-2.568731E-01
-2.863480E-01
-2.910889E-01
-2.789877E-01
-2.659350E-01
-2.223912E-01
-1.443029E-01
-8.996137E-02
-1.555609E-01
-1.795619E-01
-7.154771E-02
-3.326846E-02
-1.834473E-01
-1.654414E-01
-2.169736E-01
-1.855127E-01
-2.161633E-01
-2.315993E-01
-2.389707E-01
-2.269487E-01
-2.223912E-01
-1.773052E-01
-1.236000E-01
-8.139732E-02
-3.782986E-02
-1.327159E-01
-1.618555E-01
3.963980E-02
-1.435752E-01
-8.996137E-02
-1.443029E-01
-1.437505E-01
-1.555609E-01
-1.795619E-01
-1.618797E-01
-1.834473E-01
-1.773052E-01
-1.419906E-01
-6.085909E-02
-2.936351E-02
3.300764E-02
-7.102930E-02
-1.046874E-01
9.604703E-02
7.219805E-02
-1.018451E-01
-3.782986E-02
-8.139732E-02
-1.236000E-01
-7.154771E-02
-1.327159E-01
-1.618555E-01
-8.960324E-02
-1.435752E-01
-1.419906E-01
-1.021626E-01
-3.113337E-02
3.451837E-02
8.503613E-02
-6.070720E-02
-8.454902E-02
1.738031E-01
1.428612E-01
-7.970646E-02
3.300764E-02
-2.936351E-02
-6.085909E-02
-3.326846E-02
-7.102930E-02
-1.046874E-01
-1.018451E-01
-1.021626E-01
-8.202293E-02
2.684792E-02
8.664456E-02
6.100408E-02
1.556323E-01
-2.088045E-02
-4.081985E-02
1.880590E-01
2.454192E-01
-4.120547E-02
8.503613E-02
7.219805E-02
3.451837E-02
-3.113337E-02
3.963980E-02
-6.070720E-02
-8.454902E-02
-7.970646E-02
-8.202293E-02
-4.906125E-02
6.667261E-02
1.548856E-01
1.193802E-01
2.254339E-01
2.424848E-02
-1.961493E-02
2.572507E-01
2.974610E-01
-3.069991E-02
1.556323E-01
8.664456E-02
1.428612E-01
6.100408E-02
2.684792E-02
9.604703E-02
-2.088045E-02
-4.081985E-02
-4.120547E-02
-4.906125E-02
-3.255593E-02
6.414236E-02
1.248669E-01
1.611355E-01
2.230788E-01
2.818544E-01
4.060680E-02
1.668279E-02
3.643680E-01
-9.145452E-03
2.254339E-01
1.548856E-01
1.880590E-01
1.193802E-01
6.667261E-02
1.738031E-01
2.424848E-02
-1.961493E-02
-3.069991E-02
-3.255593E-02
-1.449598E-02
1.124580E-01
1.767452E-01
2.187449E-01
2.628999E-01
3.468966E-01
7.780624E-02
3.823673E-02
4.164759E-01
3.891998E-01
1.035982E-02
2.818544E-01
2.230788E-01
1.611355E-01
2.572507E-01
1.248669E-01
6.414236E-02
2.454192E-01
4.060680E-02
1.668279E-02
-9.145452E-03
-1.449598E-02
-5.042389E-03
1.097636E-01
1.668666E-01
2.288678E-01
3.206968E-01
3.867124E-01
7.517086E-02
3.194985E-02
4.830588E-01
4.495207E-01
1.409730E-02
3.468966E-01
2.628999E-01
2.187449E-01
2.974610E-01
1.767452E-01
1.124580E-01
7.780624E-02
3.823673E-02
1.035982E-02
-5.042389E-03
4.045618E-03
1.470208E-01
1.884193E-01
2.812548E-01
3.771120E-01
3.289287E-01
4.530489E-01
1.012255E-01
5.298247E-02
4.912718E-01
5.431097E-01
2.445583E-02
3.867124E-01
3.891998E-01
3.206968E-01
2.288678E-01
3.643680E-01
1.668666E-01
1.097636E-01
7.517086E-02
3.194985E-02
1.409730E-02
4.045618E-03
4.045618E-03
1.411182E-01
2.283055E-01
3.028059E-01
4.305353E-01
3.761919E-01
5.065456E-01
8.532401E-02
4.175097E-02
5.469172E-01
5.829348E-01
1.409730E-02
4.530489E-01
3.771120E-01
4.495207E-01
3.289287E-01
2.812548E-01
4.164759E-01
1.884193E-01
1.470208E-01
1.012255E-01
5.298247E-02
2.445583E-02
4.045618E-03
-5.042389E-03
1.728731E-01
2.804265E-01
2.186620E-01
3.634877E-01
4.213833E-01
4.936324E-01
5.586629E-01
8.532401E-02
5.298247E-02
6.336519E-01
1.035982E-02
5.065456E-01
4.305353E-01
4.912718E-01
3.761919E-01
3.028059E-01
4.830588E-01
2.283055E-01
1.411182E-01
8.532401E-02
4.175097E-02
1.409730E-02
-5.042389E-03
-1.449598E-02
1.728731E-01
3.125355E-01
2.456683E-01
3.976615E-01
4.650913E-01
5.151805E-01
6.080060E-01
1.012255E-01
3.194985E-02
6.735237E-01
6.469774E-01
-9.145452E-03
5.586629E-01
4.936324E-01
4.213833E-01
5.469172E-01
3.634877E-01
2.804265E-01
5.431097E-01
2.186620E-01
1.728731E-01
8.532401E-02
5.298247E-02
1.035982E-02
-1.449598E-02
-3.255593E-02
1.411182E-01
2.186620E-01
2.874208E-01
3.690887E-01
4.540738E-01
5.580934E-01
6.295490E-01
7.517086E-02
3.823673E-02
7.187922E-01
6.877705E-01
-3.069991E-02
6.080060E-01
5.151805E-01
4.650913E-01
5.829348E-01
3.976615E-01
3.125355E-01
2.456683E-01
1.728731E-01
1.012255E-01
3.194985E-02
-9.145452E-03
-3.255593E-02
-4.906125E-02
1.470208E-01
2.283055E-01
3.125355E-01
3.690887E-01
4.928919E-01
6.102055E-01
5.468224E-01
6.815221E-01
7.780624E-02
1.668279E-02
7.197134E-01
7.581267E-01
-4.120547E-02
6.295490E-01
6.469774E-01
5.580934E-01
4.540738E-01
6.336519E-01
3.690887E-01
2.874208E-01
2.186620E-01
1.411182E-01
7.517086E-02
3.823673E-02
-3.069991E-02
-4.906125E-02
-8.202293E-02
1.097636E-01
1.884193E-01
2.804265E-01
3.976615E-01
4.928919E-01
6.406795E-01
5.757791E-01
7.105703E-01
4.060680E-02
-1.961493E-02
7.533363E-01
7.796690E-01
-7.970646E-02
6.815221E-01
6.102055E-01
6.877705E-01
5.468224E-01
4.928919E-01
6.735237E-01
3.690887E-01
3.125355E-01
2.283055E-01
1.470208E-01
7.780624E-02
1.668279E-02
-4.120547E-02
-8.202293E-02
-1.021626E-01
1.124580E-01
1.668666E-01
3.028059E-01
4.540738E-01
3.634877E-01
5.468224E-01
6.175242E-01
6.890711E-01
7.504415E-01
2.424848E-02
-4.081985E-02
8.064635E-01
-1.018451E-01
7.105703E-01
6.406795E-01
7.197134E-01
5.757791E-01
4.928919E-01
7.187922E-01
3.976615E-01
2.804265E-01
1.884193E-01
1.097636E-01
4.060680E-02
-1.961493E-02
-7.970646E-02
-1.021626E-01
-1.419906E-01
6.414236E-02
1.767452E-01
2.812548E-01
4.650913E-01
3.761919E-01
5.580934E-01
6.406795E-01
6.890711E-01
7.765705E-01
-2.088045E-02
-8.454902E-02
8.280077E-01
8.062597E-01
-1.435752E-01
7.504415E-01
6.890711E-01
6.175242E-01
7.533363E-01
5.468224E-01
4.540738E-01
7.581267E-01
3.634877E-01
3.028059E-01
1.668666E-01
1.124580E-01
2.424848E-02
-4.081985E-02
-1.018451E-01
-1.419906E-01
-1.773052E-01
6.667261E-02
2.288678E-01
1.248669E-01
3.289287E-01
4.213833E-01
5.151805E-01
6.102055E-01
7.105703E-01
7.765705E-01
-6.070720E-02
-1.046874E-01
8.450485E-01
8.213141E-01
-1.834473E-01
7.765705E-01
6.890711E-01
6.406795E-01
7.796690E-01
5.580934E-01
4.650913E-01
3.761919E-01
2.812548E-01
1.767452E-01
6.414236E-02
-2.088045E-02
-8.454902E-02
-1.435752E-01
-1.773052E-01
-2.223912E-01
2.684792E-02
2.187449E-01
1.193802E-01
3.206968E-01
4.305353E-01
4.936324E-01
6.295490E-01
7.504415E-01
6.815221E-01
8.062597E-01
-7.102930E-02
-1.618555E-01
8.385585E-01
8.575831E-01
-2.269487E-01
7.765705E-01
8.062597E-01
7.105703E-01
6.102055E-01
8.064635E-01
5.151805E-01
4.213833E-01
3.289287E-01
2.288678E-01
1.248669E-01
6.667261E-02
-6.070720E-02
-1.046874E-01
-1.834473E-01
-2.223912E-01
-2.659350E-01
6.100408E-02
-3.113337E-02
1.611355E-01
2.628999E-01
3.771120E-01
5.065456E-01
6.080060E-01
7.533363E-01
6.877705E-01
8.064635E-01
-1.327159E-01
-1.795619E-01
8.450485E-01
8.575831E-01
-2.789877E-01
8.062597E-01
7.504415E-01
8.213141E-01
6.815221E-01
6.295490E-01
8.280077E-01
4.936324E-01
4.305353E-01
3.206968E-01
2.187449E-01
1.193802E-01
2.684792E-02
-7.102930E-02
-1.618555E-01
-2.269487E-01
-2.659350E-01
-3.058423E-01
3.451837E-02
-6.085909E-02
1.548856E-01
2.230788E-01
3.867124E-01
5.586629E-01
4.530489E-01
6.469774E-01
7.197134E-01
7.796690E-01
8.280077E-01
-1.555609E-01
-2.315993E-01
-3.079414E-01
8.064635E-01
7.533363E-01
8.385585E-01
6.877705E-01
6.080060E-01
8.450485E-01
5.065456E-01
3.771120E-01
2.628999E-01
1.611355E-01
6.100408E-02
-3.113337E-02
-1.327159E-01
-1.795619E-01
-2.789877E-01
-3.058423E-01
-3.631600E-01
8.664456E-02
-2.936351E-02
-1.236000E-01
2.254339E-01
3.468966E-01
5.469172E-01
4.495207E-01
6.336519E-01
7.187922E-01
7.581267E-01
-2.161633E-01
-2.863480E-01
-3.700460E-01
8.280077E-01
7.796690E-01
7.197134E-01
8.450485E-01
6.469774E-01
5.586629E-01
8.575831E-01
4.530489E-01
3.867124E-01
2.230788E-01
1.548856E-01
3.451837E-02
-6.085909E-02
-1.555609E-01
-2.315993E-01
-3.079414E-01
-3.631600E-01
-3.984100E-01
8.503613E-02
-8.139732E-02
-1.443029E-01
2.818544E-01
1.556323E-01
3.891998E-01
4.912718E-01
5.829348E-01
6.735237E-01
-2.568731E-01
-3.311536E-01
-4.067739E-01
7.581267E-01
7.187922E-01
8.575831E-01
6.336519E-01
5.469172E-01
4.495207E-01
3.468966E-01
2.254339E-01
8.664456E-02
-2.936351E-02
-1.236000E-01
-2.161633E-01
-2.863480E-01
-3.700460E-01
-3.984100E-01
-4.547397E-01
3.300764E-02
-8.996137E-02
-2.169736E-01
2.572507E-01
1.428612E-01
3.643680E-01
4.830588E-01
5.431097E-01
-3.171148E-01
-3.894749E-01
-4.603769E-01
6.735237E-01
5.829348E-01
4.912718E-01
3.891998E-01
2.818544E-01
1.556323E-01
8.503613E-02
-8.139732E-02
-1.443029E-01
-2.568731E-01
-3.311536E-01
-4.067739E-01
-4.547397E-01
-4.979203E-01
7.219805E-02
-3.782986E-02
-1.654414E-01
-2.295481E-01
1.880590E-01
2.974610E-01
4.164759E-01
-3.734415E-01
-4.214815E-01
-5.091166E-01
5.431097E-01
4.830588E-01
3.643680E-01
2.572507E-01
1.428612E-01
3.300764E-02
-8.996137E-02
-2.169736E-01
-3.171148E-01
-3.894749E-01
-4.603769E-01
-4.979203E-01
-5.509881E-01
3.963980E-02
-7.154771E-02
-1.855127E-01
-2.858696E-01
1.738031E-01
2.454192E-01
-3.916230E-01
-4.875202E-01
-5.565471E-01
4.164759E-01
2.974610E-01
1.880590E-01
7.219805E-02
-3.782986E-02
-1.654414E-01
-2.295481E-01
-3.734415E-01
-4.214815E-01
-5.091166E-01
-5.509881E-01
-5.960113E-01
9.604703E-02
-3.326846E-02
-1.437505E-01
-2.557601E-01
-3.517182E-01
-4.612918E-01
-5.091490E-01
-6.085951E-01
2.454192E-01
1.738031E-01
3.963980E-02
-7.154771E-02
-1.855127E-01
-2.858696E-01
-3.916230E-01
-4.875202E-01
-5.565471E-01
-5.960113E-01
-6.344537E-01
-8.960324E-02
-1.618797E-01
-2.910889E-01
-3.894186E-01
-4.856097E-01
-5.611917E-01
-6.336304E-01
9.604703E-02
-3.326846E-02
-1.437505E-01
-2.557601E-01
-3.517182E-01
-4.612918E-01
-5.091490E-01
-6.085951E-01
-6.344537E-01
-6.838095E-01
-2.389707E-01
-3.588988E-01
-4.536413E-01
-5.447485E-01
-6.120288E-01
-6.868859E-01
-8.960324E-02
-1.618797E-01
-2.910889E-01
-3.894186E-01
-4.856097E-01
-5.611917E-01
-6.336304E-01
-6.838095E-01
-7.112063E-01
-4.109510E-01
-4.728848E-01
-5.774716E-01
-6.479764E-01
-7.117540E-01
-2.389707E-01
-3.588988E-01
-4.536413E-01
-5.447485E-01
-6.120288E-01
-6.868859E-01
-7.112063E-01
-7.510558E-01
-5.375762E-01
-6.298625E-01
-6.944462E-01
-7.507874E-01
-4.109510E-01
-4.728848E-01
-5.774716E-01
-6.479764E-01
-7.117540E-01
-7.510558E-01
-7.791465E-01
-6.697115E-01
-7.118775E-01
-7.759319E-01
-5.375762E-01
-6.298625E-01
-6.944462E-01
-7.507874E-01
-7.791465E-01
-8.078857E-01
-7.543298E-01
-8.049395E-01
-6.697115E-01
-7.118775E-01
-7.759319E-01
-8.078857E-01
-8.295463E-01
-8.265414E-01
-7.543298E-01
-8.049395E-01
-8.295463E-01
-8.425347E-01
-8.265414E-01
-8.425347E-01
-8.563775E-01
-8.563775E-01
