# vtk DataFile Version 2.0
Grille
ASCII
DATASET POLYDATA
POINTS 481 float
0.000000E+00 8.750000E-01 -7.163924E-01
6.250000E-02 8.750000E-01 -7.012074E-01
1.250000E-01 8.750000E-01 -6.617861E-01
1.250000E-01 9.375000E-01 -7.012074E-01
1.250000E-01 1.000000E+00 -7.163924E-01
6.250000E-02 1.000000E+00 -7.590867E-01
0.000000E+00 1.000000E+00 -7.758789E-01
0.000000E+00 9.375000E-01 -7.590867E-01
3.750000E-02 9.125000E-01 -7.387889E-01
8.125000E-02 9.187500E-01 -7.242861E-01
8.750000E-02 9.625000E-01 -7.387889E-01
4.375000E-02 9.562500E-01 -7.592442E-01
1.875000E-01 8.750000E-01 -5.944362E-01
2.500000E-01 8.750000E-01 -5.063302E-01
2.500000E-01 9.375000E-01 -5.365576E-01
2.500000E-01 1.000000E+00 -5.480893E-01
1.875000E-01 1.000000E+00 -6.433275E-01
1.625000E-01 9.125000E-01 -6.490207E-01
2.062500E-01 9.187500E-01 -5.966228E-01
2.125000E-01 9.625000E-01 -6.026470E-01
1.687500E-01 9.562500E-01 -6.610668E-01
0.000000E+00 7.500000E-01 -5.480893E-01
6.250000E-02 7.500000E-01 -5.365576E-01
1.250000E-01 7.500000E-01 -5.063302E-01
1.250000E-01 8.125000E-01 -5.944362E-01
0.000000E+00 8.125000E-01 -6.433275E-01
3.750000E-02 7.875000E-01 -6.026470E-01
8.125000E-02 7.937500E-01 -5.966228E-01
8.750000E-02 8.375000E-01 -6.490207E-01
4.375000E-02 8.312500E-01 -6.610668E-01
1.875000E-01 7.500000E-01 -4.549809E-01
2.500000E-01 7.500000E-01 -3.873563E-01
2.500000E-01 8.125000E-01 -4.549809E-01
1.625000E-01 7.875000E-01 -5.295439E-01
2.062500E-01 7.937500E-01 -4.914355E-01
2.125000E-01 8.375000E-01 -5.295439E-01
1.687500E-01 8.312500E-01 -5.756144E-01
3.125000E-01 8.750000E-01 -3.971163E-01
3.750000E-01 8.750000E-01 -2.737440E-01
3.750000E-01 9.375000E-01 -2.901969E-01
3.750000E-01 1.000000E+00 -2.963302E-01
3.125000E-01 1.000000E+00 -4.296635E-01
2.875000E-01 9.125000E-01 -4.604118E-01
3.312500E-01 9.187500E-01 -3.781035E-01
3.375000E-01 9.625000E-01 -3.747572E-01
2.937500E-01 9.562500E-01 -4.622727E-01
4.375000E-01 8.750000E-01 -1.392914E-01
5.000000E-01 8.750000E-01 5.672688E-04
5.000000E-01 9.375000E-01 3.877449E-04
5.000000E-01 1.000000E+00 5.845908E-04
4.375000E-01 1.000000E+00 -1.505535E-01
4.125000E-01 9.125000E-01 -2.016710E-01
4.562500E-01 9.187500E-01 -1.019791E-01
4.625000E-01 9.625000E-01 -8.977524E-02
4.187500E-01 9.562500E-01 -1.930696E-01
3.125000E-01 7.500000E-01 -3.040533E-01
3.750000E-01 7.500000E-01 -2.093383E-01
3.750000E-01 8.125000E-01 -2.461966E-01
2.875000E-01 7.875000E-01 -3.757389E-01
3.312500E-01 7.937500E-01 -3.113592E-01
3.375000E-01 8.375000E-01 -3.293886E-01
2.937500E-01 8.312500E-01 -4.024602E-01
4.375000E-01 7.500000E-01 -1.067697E-01
5.000000E-01 7.500000E-01 6.130833E-04
5.000000E-01 8.125000E-01 1.259815E-04
4.125000E-01 7.875000E-01 -1.646676E-01
4.562500E-01 7.937500E-01 -8.382099E-02
4.625000E-01 8.375000E-01 -7.903281E-02
4.187500E-01 8.312500E-01 -1.679793E-01
0.000000E+00 6.250000E-01 -2.963302E-01
6.250000E-02 6.250000E-01 -2.901969E-01
1.250000E-01 6.250000E-01 -2.737440E-01
1.250000E-01 6.875000E-01 -3.971163E-01
0.000000E+00 6.875000E-01 -4.296635E-01
3.750000E-02 6.625000E-01 -3.747572E-01
8.125000E-02 6.687500E-01 -3.781035E-01
8.750000E-02 7.125000E-01 -4.604118E-01
4.375000E-02 7.062500E-01 -4.622727E-01
1.875000E-01 6.250000E-01 -2.461966E-01
2.500000E-01 6.250000E-01 -2.093383E-01
2.500000E-01 6.875000E-01 -3.040533E-01
1.625000E-01 6.625000E-01 -3.293886E-01
2.062500E-01 6.687500E-01 -3.113592E-01
2.125000E-01 7.125000E-01 -3.757389E-01
1.687500E-01 7.062500E-01 -4.024602E-01
0.000000E+00 5.000000E-01 5.845908E-04
6.250000E-02 5.000000E-01 3.877449E-04
1.250000E-01 5.000000E-01 5.672688E-04
1.250000E-01 5.625000E-01 -1.392914E-01
0.000000E+00 5.625000E-01 -1.505535E-01
3.750000E-02 5.375000E-01 -8.977524E-02
8.125000E-02 5.437500E-01 -1.019791E-01
8.750000E-02 5.875000E-01 -2.016710E-01
4.375000E-02 5.812500E-01 -1.930696E-01
1.875000E-01 5.000000E-01 1.259815E-04
2.500000E-01 5.000000E-01 6.130833E-04
2.500000E-01 5.625000E-01 -1.067697E-01
1.625000E-01 5.375000E-01 -7.903281E-02
2.062500E-01 5.437500E-01 -8.382099E-02
2.125000E-01 5.875000E-01 -1.646676E-01
1.687500E-01 5.812500E-01 -1.679793E-01
3.125000E-01 6.250000E-01 -1.646220E-01
3.750000E-01 6.250000E-01 -1.129800E-01
3.750000E-01 6.875000E-01 -1.646220E-01
2.875000E-01 6.625000E-01 -2.337816E-01
3.312500E-01 6.687500E-01 -1.971274E-01
3.375000E-01 7.125000E-01 -2.337816E-01
2.937500E-01 7.062500E-01 -2.812913E-01
4.375000E-01 6.250000E-01 -5.790857E-02
5.000000E-01 6.250000E-01 6.511952E-04
5.000000E-01 6.875000E-01 -5.961015E-05
4.125000E-01 6.625000E-01 -1.025068E-01
4.562500E-01 6.687500E-01 -5.281201E-02
4.625000E-01 7.125000E-01 -5.616438E-02
4.187500E-01 7.062500E-01 -1.172257E-01
3.125000E-01 5.000000E-01 -5.961015E-05
3.750000E-01 5.000000E-01 6.511952E-04
3.750000E-01 5.625000E-01 -5.790857E-02
2.875000E-01 5.375000E-01 -5.616438E-02
3.312500E-01 5.437500E-01 -5.281201E-02
3.375000E-01 5.875000E-01 -1.025068E-01
2.937500E-01 5.812500E-01 -1.172257E-01
4.375000E-01 5.000000E-01 -1.564611E-04
5.000000E-01 5.000000E-01 6.657371E-04
5.000000E-01 5.625000E-01 -1.564611E-04
4.125000E-01 5.375000E-01 -2.466384E-02
4.562500E-01 5.437500E-01 -1.368494E-02
4.625000E-01 5.875000E-01 -2.466384E-02
4.187500E-01 5.812500E-01 -4.854543E-02
5.625000E-01 8.750000E-01 1.397909E-01
6.250000E-01 8.750000E-01 2.748442E-01
6.250000E-01 9.375000E-01 2.909618E-01
6.250000E-01 1.000000E+00 2.974576E-01
5.625000E-01 1.000000E+00 1.515231E-01
5.375000E-01 9.125000E-01 8.782045E-02
5.812500E-01 9.187500E-01 1.897198E-01
5.875000E-01 9.625000E-01 2.089215E-01
5.437500E-01 9.562500E-01 1.055726E-01
6.875000E-01 8.750000E-01 3.976429E-01
7.500000E-01 8.750000E-01 5.073285E-01
7.500000E-01 9.375000E-01 5.372838E-01
7.500000E-01 1.000000E+00 5.490874E-01
6.875000E-01 1.000000E+00 4.305779E-01
6.625000E-01 9.125000E-01 3.639915E-01
7.062500E-01 9.187500E-01 4.525834E-01
7.125000E-01 9.625000E-01 4.758574E-01
6.687500E-01 9.562500E-01 3.881897E-01
5.625000E-01 7.500000E-01 1.068306E-01
6.250000E-01 7.500000E-01 2.105328E-01
6.250000E-01 8.125000E-01 2.464861E-01
5.375000E-01 7.875000E-01 7.153207E-02
5.812500E-01 7.937500E-01 1.565365E-01
5.875000E-01 8.375000E-01 1.834097E-01
5.437500E-01 8.312500E-01 9.213001E-02
6.875000E-01 7.500000E-01 3.042291E-01
7.500000E-01 7.500000E-01 3.884645E-01
7.500000E-01 8.125000E-01 4.553780E-01
6.625000E-01 7.875000E-01 2.969004E-01
7.062500E-01 7.937500E-01 3.731213E-01
7.125000E-01 8.375000E-01 4.179842E-01
6.687500E-01 8.312500E-01 3.382686E-01
8.125000E-01 8.750000E-01 5.950051E-01
8.750000E-01 8.750000E-01 6.626224E-01
8.750000E-01 9.375000E-01 7.018344E-01
8.750000E-01 1.000000E+00 7.171379E-01
8.125000E-01 1.000000E+00 6.441148E-01
7.875000E-01 9.125000E-01 5.847917E-01
8.312500E-01 9.187500E-01 6.465831E-01
8.375000E-01 9.625000E-01 6.703782E-01
7.937500E-01 9.562500E-01 6.117468E-01
9.375000E-01 8.750000E-01 7.018344E-01
1.000000E+00 8.750000E-01 7.171379E-01
1.000000E+00 9.375000E-01 7.595592E-01
1.000000E+00 1.000000E+00 7.757553E-01
9.375000E-01 1.000000E+00 7.595592E-01
9.125000E-01 9.125000E-01 7.165921E-01
9.562500E-01 9.187500E-01 7.421703E-01
9.625000E-01 9.625000E-01 7.627960E-01
9.187500E-01 9.562500E-01 7.421703E-01
8.125000E-01 7.500000E-01 4.553780E-01
8.750000E-01 7.500000E-01 5.073285E-01
8.750000E-01 8.125000E-01 5.950051E-01
7.875000E-01 7.875000E-01 4.771292E-01
8.312500E-01 7.937500E-01 5.329637E-01
8.375000E-01 8.375000E-01 5.889791E-01
7.937500E-01 8.312500E-01 5.329637E-01
9.375000E-01 7.500000E-01 5.372838E-01
1.000000E+00 7.500000E-01 5.490874E-01
1.000000E+00 8.125000E-01 6.441148E-01
9.125000E-01 7.875000E-01 5.847917E-01
9.562500E-01 7.937500E-01 6.117468E-01
9.625000E-01 8.375000E-01 6.703782E-01
9.187500E-01 8.312500E-01 6.465831E-01
5.625000E-01 6.250000E-01 5.769110E-02
6.250000E-01 6.250000E-01 1.142527E-01
6.250000E-01 6.875000E-01 1.645780E-01
5.375000E-01 6.625000E-01 4.444283E-02
5.812500E-01 6.687500E-01 9.961111E-02
5.875000E-01 7.125000E-01 1.300680E-01
5.437500E-01 7.062500E-01 6.475246E-02
6.875000E-01 6.250000E-01 1.645780E-01
7.500000E-01 6.250000E-01 2.105328E-01
7.500000E-01 6.875000E-01 3.042291E-01
6.625000E-01 6.625000E-01 1.846943E-01
7.062500E-01 6.687500E-01 2.369378E-01
7.125000E-01 7.125000E-01 2.965644E-01
6.687500E-01 7.062500E-01 2.369378E-01
5.625000E-01 5.000000E-01 -1.564611E-04
6.250000E-01 5.000000E-01 6.511952E-04
6.250000E-01 5.625000E-01 5.769110E-02
5.375000E-01 5.375000E-01 1.066517E-02
5.812500E-01 5.437500E-01 2.759786E-02
5.875000E-01 5.875000E-01 5.700511E-02
5.437500E-01 5.812500E-01 2.759786E-02
6.875000E-01 5.000000E-01 -5.961015E-05
7.500000E-01 5.000000E-01 6.130833E-04
7.500000E-01 5.625000E-01 1.068306E-01
6.625000E-01 5.375000E-01 4.444283E-02
7.062500E-01 5.437500E-01 6.475246E-02
7.125000E-01 5.875000E-01 1.300680E-01
6.687500E-01 5.812500E-01 9.961111E-02
8.125000E-01 6.250000E-01 2.464861E-01
8.750000E-01 6.250000E-01 2.748442E-01
8.750000E-01 6.875000E-01 3.976429E-01
7.875000E-01 6.625000E-01 2.969004E-01
8.312500E-01 6.687500E-01 3.382686E-01
8.375000E-01 7.125000E-01 4.179842E-01
7.937500E-01 7.062500E-01 3.731213E-01
9.375000E-01 6.250000E-01 2.909618E-01
1.000000E+00 6.250000E-01 2.974576E-01
1.000000E+00 6.875000E-01 4.305779E-01
9.125000E-01 6.625000E-01 3.639915E-01
9.562500E-01 6.687500E-01 3.881897E-01
9.625000E-01 7.125000E-01 4.758574E-01
9.187500E-01 7.062500E-01 4.525834E-01
8.125000E-01 5.000000E-01 1.259815E-04
8.750000E-01 5.000000E-01 5.672688E-04
8.750000E-01 5.625000E-01 1.397909E-01
7.875000E-01 5.375000E-01 7.153207E-02
8.312500E-01 5.437500E-01 9.213001E-02
8.375000E-01 5.875000E-01 1.834097E-01
7.937500E-01 5.812500E-01 1.565365E-01
9.375000E-01 5.000000E-01 3.877449E-04
1.000000E+00 5.000000E-01 5.845908E-04
1.000000E+00 5.625000E-01 1.515231E-01
9.125000E-01 5.375000E-01 8.782045E-02
9.562500E-01 5.437500E-01 1.055726E-01
9.625000E-01 5.875000E-01 2.089215E-01
9.187500E-01 5.812500E-01 1.897198E-01
0.000000E+00 3.750000E-01 2.974576E-01
6.250000E-02 3.750000E-01 2.909618E-01
[...]
CELL_DATA 896
SCALARS sol float 1
LOOKUP_TABLE default
-7.187963E-01
-7.214275E-01
-7.380894E-01
-6.928889E-01
-7.407731E-01
-6.957599E-01
-7.523733E-01
-6.735956E-01
-6.704317E-01
-7.407731E-01
-6.957599E-01
-6.706714E-01
-7.647366E-01
-6.356804E-01
-6.355701E-01
-7.523733E-01
-7.214275E-01
-6.706714E-01
-6.350810E-01
-7.647366E-01
-6.201122E-01
-5.980213E-01
-6.133599E-01
-7.380894E-01
-7.187963E-01
-6.350810E-01
-6.704317E-01
-6.106123E-01
-5.786091E-01
-5.624313E-01
-5.657964E-01
-6.928889E-01
-6.133599E-01
-6.106123E-01
-6.355701E-01
-5.665315E-01
-5.465035E-01
-5.156398E-01
-5.434368E-01
-6.735956E-01
-5.657964E-01
-5.665315E-01
-6.201122E-01
-5.321979E-01
-5.010999E-01
-4.800085E-01
-4.864140E-01
-4.969516E-01
-6.356804E-01
-5.465035E-01
-5.434368E-01
-5.321979E-01
-5.786091E-01
-4.919868E-01
-4.546194E-01
-4.222311E-01
-4.335960E-01
-4.545904E-01
-5.980213E-01
-5.010999E-01
-4.969516E-01
-4.919868E-01
-5.624313E-01
-4.445909E-01
-4.118772E-01
-4.353022E-01
-4.050445E-01
-3.669169E-01
-4.110600E-01
-4.546194E-01
-4.864140E-01
-4.545904E-01
-4.445909E-01
-5.156398E-01
-4.060254E-01
-3.496546E-01
-3.763217E-01
-3.476859E-01
-3.204281E-01
-3.631861E-01
-4.118772E-01
-4.353022E-01
-4.335960E-01
-4.110600E-01
-4.060254E-01
-4.800085E-01
-3.557161E-01
-3.140148E-01
-3.334163E-01
-3.477360E-01
-2.598656E-01
-3.303838E-01
-3.496546E-01
-3.763217E-01
-4.050445E-01
-3.631861E-01
-3.557161E-01
-4.222311E-01
-3.242336E-01
-2.552040E-01
-2.831097E-01
-2.956481E-01
-2.133178E-01
-2.283125E-01
-2.749169E-01
-3.140148E-01
-3.334163E-01
-3.477360E-01
-3.476859E-01
-3.303838E-01
-3.242336E-01
-3.669169E-01
-2.730421E-01
-2.049021E-01
-2.293066E-01
-2.556314E-01
-1.444661E-01
-1.655732E-01
-2.490577E-01
-2.552040E-01
-2.831097E-01
-2.956481E-01
-3.204281E-01
-2.749169E-01
-2.730421E-01
-2.374001E-01
-1.936716E-01
-1.476471E-01
-1.929478E-01
-2.067342E-01
-1.282746E-01
-7.991472E-02
-2.025807E-01
-2.049021E-01
-2.283125E-01
-2.293066E-01
-2.556314E-01
-2.598656E-01
-2.490577E-01
-2.374001E-01
-1.985103E-01
-1.287678E-01
-8.023438E-02
-1.388226E-01
-1.602585E-01
-6.378885E-02
-2.960097E-02
-1.637287E-01
-1.476471E-01
-1.936716E-01
-1.655732E-01
-1.929478E-01
-2.067342E-01
-2.133178E-01
-2.025807E-01
-1.985103E-01
-1.582431E-01
-1.102777E-01
-7.258563E-02
-3.367468E-02
-1.184194E-01
-1.444446E-01
3.551498E-02
-1.281182E-01
-8.023438E-02
-1.287678E-01
-1.282746E-01
-1.388226E-01
-1.602585E-01
-1.444661E-01
-1.637287E-01
-1.582431E-01
-1.267029E-01
-5.424261E-02
-2.611319E-02
2.959182E-02
-6.332588E-02
-9.338659E-02
8.589343E-02
6.459360E-02
-9.084815E-02
-3.367468E-02
-7.258563E-02
-1.102777E-01
-6.378885E-02
-1.184194E-01
-1.444446E-01
-7.991472E-02
-1.281182E-01
-1.267029E-01
-9.113177E-02
-2.769397E-02
3.094109E-02
7.605955E-02
-5.410701E-02
-7.540069E-02
1.553391E-01
1.277043E-01
-7.107578E-02
2.959182E-02
-2.611319E-02
-5.424261E-02
-2.960097E-02
-6.332588E-02
-9.338659E-02
-9.084815E-02
-9.113177E-02
-7.314466E-02
2.409038E-02
7.749607E-02
5.459602E-02
1.391104E-01
-1.853697E-02
-3.634534E-02
1.680713E-01
2.193008E-01
-3.668980E-02
7.605955E-02
6.459360E-02
3.094109E-02
-2.769397E-02
3.551498E-02
-5.410701E-02
-7.540069E-02
-7.107578E-02
-7.314466E-02
-4.370595E-02
5.965859E-02
1.384436E-01
1.067329E-01
2.014516E-01
2.176864E-02
-1.740681E-02
2.298677E-01
2.657803E-01
-2.730707E-02
1.391104E-01
7.749607E-02
1.277043E-01
5.459602E-02
2.409038E-02
8.589343E-02
-1.853697E-02
-3.634534E-02
-3.668980E-02
-4.370595E-02
-2.896474E-02
5.739872E-02
1.116331E-01
1.440254E-01
1.993483E-01
2.518419E-01
3.637856E-02
1.501147E-02
3.255364E-01
-8.056370E-03
2.014516E-01
1.384436E-01
1.680713E-01
1.067329E-01
5.965859E-02
1.553391E-01
2.176864E-02
-1.740681E-02
-2.730707E-02
-2.896474E-02
-1.283508E-02
1.005504E-01
1.579667E-01
1.954774E-01
2.349133E-01
3.099325E-01
6.960213E-02
3.426171E-02
3.720751E-01
3.477144E-01
9.364199E-03
2.518419E-01
1.993483E-01
1.440254E-01
2.298677E-01
1.116331E-01
5.739872E-02
2.193008E-01
3.637856E-02
1.501147E-02
-8.056370E-03
-1.283508E-02
-4.391889E-03
9.814387E-02
1.491438E-01
2.045185E-01
2.865329E-01
3.454929E-01
6.724835E-02
2.864672E-02
4.315417E-01
4.015882E-01
1.270219E-02
3.099325E-01
2.349133E-01
1.954774E-01
2.657803E-01
1.579667E-01
1.005504E-01
6.960213E-02
3.426171E-02
9.364199E-03
-4.391889E-03
3.724816E-03
1.314191E-01
1.683930E-01
2.513064E-01
3.369185E-01
2.938850E-01
4.047393E-01
9.051830E-02
4.743136E-02
4.388768E-01
4.851743E-01
2.195363E-02
3.454929E-01
3.477144E-01
2.865329E-01
2.045185E-01
3.255364E-01
1.491438E-01
9.814387E-02
6.724835E-02
2.864672E-02
1.270219E-02
3.724816E-03
3.724816E-03
1.261473E-01
2.040162E-01
2.705541E-01
3.846319E-01
3.360967E-01
4.525183E-01
7.631630E-02
3.740028E-02
4.885749E-01
5.207429E-01
1.270219E-02
4.047393E-01
3.369185E-01
4.015882E-01
2.938850E-01
2.513064E-01
3.720751E-01
1.683930E-01
1.314191E-01
9.051830E-02
4.743136E-02
2.195363E-02
3.724816E-03
-4.391889E-03
1.545083E-01
2.505666E-01
1.954034E-01
3.247503E-01
3.764580E-01
4.409852E-01
4.990652E-01
7.631630E-02
4.743136E-02
5.660394E-01
9.364199E-03
4.525183E-01
3.846319E-01
4.388768E-01
3.360967E-01
2.705541E-01
4.315417E-01
2.040162E-01
1.261473E-01
7.631630E-02
3.740028E-02
1.270219E-02
-4.391889E-03
-1.283508E-02
1.545083E-01
2.792437E-01
2.195233E-01
3.552716E-01
4.154945E-01
4.602302E-01
5.431347E-01
9.051830E-02
2.864672E-02
6.016497E-01
5.779408E-01
-8.056370E-03
4.990652E-01
4.409852E-01
3.764580E-01
4.885749E-01
3.247503E-01
2.505666E-01
4.851743E-01
1.954034E-01
1.545083E-01
7.631630E-02
4.743136E-02
9.364199E-03
-1.283508E-02
-2.896474E-02
1.261473E-01
1.954034E-01
2.568133E-01
3.297526E-01
4.056546E-01
4.985567E-01
5.623751E-01
6.724835E-02
3.426171E-02
6.420800E-01
6.143739E-01
-2.730707E-02
5.431347E-01
4.602302E-01
4.154945E-01
5.207429E-01
3.552716E-01
2.792437E-01
2.195233E-01
1.545083E-01
9.051830E-02
2.864672E-02
-8.056370E-03
-2.896474E-02
-4.370595E-02
1.314191E-01
2.040162E-01
2.792437E-01
3.297526E-01
4.403239E-01
5.450991E-01
4.884903E-01
6.087933E-01
6.960213E-02
1.501147E-02
6.429027E-01
6.772103E-01
-3.668980E-02
5.623751E-01
5.779408E-01
4.985567E-01
4.056546E-01
5.660394E-01
3.297526E-01
2.568133E-01
1.954034E-01
1.261473E-01
6.724835E-02
3.426171E-02
-2.730707E-02
-4.370595E-02
-7.314466E-02
9.814387E-02
1.683930E-01
2.505666E-01
3.552716E-01
4.403239E-01
5.723160E-01
5.143522E-01
6.347369E-01
3.637856E-02
-1.740681E-02
6.729319E-01
6.964502E-01
-7.107578E-02
6.087933E-01
5.450991E-01
6.143739E-01
4.884903E-01
4.403239E-01
6.016497E-01
3.297526E-01
2.792437E-01
2.040162E-01
1.314191E-01
6.960213E-02
1.501147E-02
-3.668980E-02
-7.314466E-02
-9.113177E-02
1.005504E-01
1.491438E-01
2.705541E-01
4.056546E-01
3.247503E-01
4.884903E-01
5.516355E-01
6.155355E-01
6.703466E-01
2.176864E-02
-3.634534E-02
7.203809E-01
-9.084815E-02
6.347369E-01
5.723160E-01
6.429027E-01
5.143522E-01
4.403239E-01
6.420800E-01
3.552716E-01
2.505666E-01
1.683930E-01
9.814387E-02
3.637856E-02
-1.740681E-02
-7.107578E-02
-9.113177E-02
-1.267029E-01
5.739872E-02
1.579667E-01
2.513064E-01
4.154945E-01
3.360967E-01
4.985567E-01
5.723160E-01
6.155355E-01
6.936830E-01
-1.853697E-02
-7.540069E-02
7.396225E-01
7.201990E-01
-1.281182E-01
6.703466E-01
6.155355E-01
5.516355E-01
6.729319E-01
4.884903E-01
4.056546E-01
6.772103E-01
3.247503E-01
2.705541E-01
1.491438E-01
1.005504E-01
2.176864E-02
-3.634534E-02
-9.084815E-02
-1.267029E-01
-1.582431E-01
5.965859E-02
2.045185E-01
1.116331E-01
2.938850E-01
3.764580E-01
4.602302E-01
5.450991E-01
6.347369E-01
6.936830E-01
-5.410701E-02
-9.338659E-02
7.548419E-01
7.336443E-01
-1.637287E-01
6.936830E-01
6.155355E-01
5.723160E-01
6.964502E-01
4.985567E-01
4.154945E-01
3.360967E-01
2.513064E-01
1.579667E-01
5.739872E-02
-1.853697E-02
-7.540069E-02
-1.281182E-01
-1.582431E-01
-1.985103E-01
2.409038E-02
1.954774E-01
1.067329E-01
2.865329E-01
3.846319E-01
4.409852E-01
5.623751E-01
6.703466E-01
6.087933E-01
7.201990E-01
-6.332588E-02
-1.444446E-01
7.490456E-01
7.660368E-01
-2.025807E-01
6.936830E-01
7.201990E-01
6.347369E-01
5.450991E-01
7.203809E-01
4.602302E-01
3.764580E-01
2.938850E-01
2.045185E-01
1.116331E-01
5.965859E-02
-5.410701E-02
-9.338659E-02
-1.637287E-01
-1.985103E-01
-2.374001E-01
5.459602E-02
-2.769397E-02
1.440254E-01
2.349133E-01
3.369185E-01
4.525183E-01
5.431347E-01
6.729319E-01
6.143739E-01
7.203809E-01
-1.184194E-01
-1.602585E-01
7.548419E-01
7.660368E-01
-2.490577E-01
7.201990E-01
6.703466E-01
7.336443E-01
6.087933E-01
5.623751E-01
7.396225E-01
4.409852E-01
3.846319E-01
2.865329E-01
1.954774E-01
1.067329E-01
2.409038E-02
-6.332588E-02
-1.444446E-01
-2.025807E-01
-2.374001E-01
-2.730421E-01
3.094109E-02
-5.424261E-02
1.384436E-01
1.993483E-01
3.454929E-01
4.990652E-01
4.047393E-01
5.779408E-01
6.429027E-01
6.964502E-01
7.396225E-01
-1.388226E-01
-2.067342E-01
-2.749169E-01
7.203809E-01
6.729319E-01
7.490456E-01
6.143739E-01
5.431347E-01
7.548419E-01
4.525183E-01
3.369185E-01
2.349133E-01
1.440254E-01
5.459602E-02
-2.769397E-02
-1.184194E-01
-1.602585E-01
-2.490577E-01
-2.730421E-01
-3.242336E-01
7.749607E-02
-2.611319E-02
-1.102777E-01
2.014516E-01
3.099325E-01
4.885749E-01
4.015882E-01
5.660394E-01
6.420800E-01
6.772103E-01
-1.929478E-01
-2.556314E-01
-3.303838E-01
7.396225E-01
6.964502E-01
6.429027E-01
7.548419E-01
5.779408E-01
4.990652E-01
7.660368E-01
4.047393E-01
3.454929E-01
1.993483E-01
1.384436E-01
3.094109E-02
-5.424261E-02
-1.388226E-01
-2.067342E-01
-2.749169E-01
-3.242336E-01
-3.557161E-01
7.605955E-02
-7.258563E-02
-1.287678E-01
2.518419E-01
1.391104E-01
3.477144E-01
4.388768E-01
5.207429E-01
6.016497E-01
-2.293066E-01
-2.956481E-01
-3.631861E-01
6.772103E-01
6.420800E-01
7.660368E-01
5.660394E-01
4.885749E-01
4.015882E-01
3.099325E-01
2.014516E-01
7.749607E-02
-2.611319E-02
-1.102777E-01
-1.929478E-01
-2.556314E-01
-3.303838E-01
-3.557161E-01
-4.060254E-01
2.959182E-02
-8.023438E-02
-1.936716E-01
2.298677E-01
1.277043E-01
3.255364E-01
4.315417E-01
4.851743E-01
-2.831097E-01
-3.477360E-01
-4.110600E-01
6.016497E-01
5.207429E-01
4.388768E-01
3.477144E-01
2.518419E-01
1.391104E-01
7.605955E-02
-7.258563E-02
-1.287678E-01
-2.293066E-01
-2.956481E-01
-3.631861E-01
-4.060254E-01
-4.445909E-01
6.459360E-02
-3.367468E-02
-1.476471E-01
-2.049021E-01
1.680713E-01
2.657803E-01
3.720751E-01
-3.334163E-01
-3.763217E-01
-4.545904E-01
4.851743E-01
4.315417E-01
3.255364E-01
2.298677E-01
1.277043E-01
2.959182E-02
-8.023438E-02
-1.936716E-01
-2.831097E-01
-3.477360E-01
-4.110600E-01
-4.445909E-01
-4.919868E-01
3.551498E-02
-6.378885E-02
-1.655732E-01
-2.552040E-01
1.553391E-01
2.193008E-01
-3.496546E-01
-4.353022E-01
-4.969516E-01
3.720751E-01
2.657803E-01
1.680713E-01
6.459360E-02
-3.367468E-02
-1.476471E-01
-2.049021E-01
-3.334163E-01
-3.763217E-01
-4.545904E-01
-4.919868E-01
-5.321979E-01
8.589343E-02
-2.960097E-02
-1.282746E-01
-2.283125E-01
-3.140148E-01
-4.118772E-01
-4.546194E-01
-5.434368E-01
2.193008E-01
1.553391E-01
3.551498E-02
-6.378885E-02
-1.655732E-01
-2.552040E-01
-3.496546E-01
-4.353022E-01
-4.969516E-01
-5.321979E-01
-5.665315E-01
-7.991472E-02
-1.444661E-01
-2.598656E-01
-3.476859E-01
-4.335960E-01
-5.010999E-01
-5.657964E-01
8.589343E-02
-2.960097E-02
-1.282746E-01
-2.283125E-01
-3.140148E-01
-4.118772E-01
-4.546194E-01
-5.434368E-01
-5.665315E-01
-6.106123E-01
-2.133178E-01
-3.204281E-01
-4.050445E-01
-4.864140E-01
-5.465035E-01
-6.133599E-01
-7.991472E-02
-1.444661E-01
-2.598656E-01
-3.476859E-01
-4.335960E-01
-5.010999E-01
-5.657964E-01
-6.106123E-01
-6.350810E-01
-3.669169E-01
-4.222311E-01
-5.156398E-01
-5.786091E-01
-6.355701E-01
-2.133178E-01
-3.204281E-01
-4.050445E-01
-4.864140E-01
-5.465035E-01
-6.133599E-01
-6.350810E-01
-6.706714E-01
-4.800085E-01
-5.624313E-01
-6.201122E-01
-6.704317E-01
-3.669169E-01
-4.222311E-01
-5.156398E-01
-5.786091E-01
-6.355701E-01
-6.706714E-01
-6.957599E-01
-5.980213E-01
-6.356804E-01
-6.928889E-01
-4.800085E-01
-5.624313E-01
-6.201122E-01
-6.704317E-01
-6.957599E-01
-7.214275E-01
-6.735956E-01
-7.187963E-01
-5.980213E-01
-6.356804E-01
-6.928889E-01
-7.214275E-01
-7.407731E-01
-7.380894E-01
-6.735956E-01
-7.187963E-01
-7.407731E-01
-7.523733E-01
-7.380894E-01
-7.523733E-01
-7.647366E-01
-7.647366E-01
