# vtk DataFile Version 2.0
Grille
ASCII
DATASET POLYDATA
POINTS 481 float
0.000000E+00 8.750000E-01 -8.341282E-01
6.250000E-02 8.750000E-01 -8.164520E-01
1.250000E-01 8.750000E-01 -7.705619E-01
1.250000E-01 9.375000E-01 -8.164520E-01
1.250000E-01 1.000000E+00 -8.341282E-01
6.250000E-02 1.000000E+00 -8.838286E-01
0.000000E+00 1.000000E+00 -9.033759E-01
0.000000E+00 9.375000E-01 -8.838286E-01
3.750000E-02 9.125000E-01 -8.602001E-01
8.125000E-02 9.187500E-01 -8.433175E-01
8.750000E-02 9.625000E-01 -8.602001E-01
4.375000E-02 9.562500E-01 -8.840119E-01
1.875000E-01 8.750000E-01 -6.921607E-01
2.500000E-01 8.750000E-01 -5.895971E-01
2.500000E-01 9.375000E-01 -6.247846E-01
2.500000E-01 1.000000E+00 -6.382079E-01
1.875000E-01 1.000000E+00 -7.490745E-01
1.625000E-01 9.125000E-01 -7.557020E-01
2.062500E-01 9.187500E-01 -6.947058E-01
2.125000E-01 9.625000E-01 -7.017185E-01
1.687500E-01 9.562500E-01 -7.697248E-01
0.000000E+00 7.500000E-01 -6.382079E-01
6.250000E-02 7.500000E-01 -6.247846E-01
1.250000E-01 7.500000E-01 -5.895971E-01
1.250000E-01 8.125000E-01 -6.921607E-01
0.000000E+00 8.125000E-01 -7.490745E-01
3.750000E-02 7.875000E-01 -7.017185E-01
8.125000E-02 7.937500E-01 -6.947058E-01
8.750000E-02 8.375000E-01 -7.557020E-01
4.375000E-02 8.312500E-01 -7.697248E-01
1.875000E-01 7.500000E-01 -5.298219E-01
2.500000E-01 7.500000E-01 -4.511006E-01
2.500000E-01 8.125000E-01 -5.298219E-01
1.625000E-01 7.875000E-01 -6.166201E-01
2.062500E-01 7.937500E-01 -5.722582E-01
2.125000E-01 8.375000E-01 -6.166201E-01
1.687500E-01 8.312500E-01 -6.702507E-01
3.125000E-01 8.750000E-01 -4.624622E-01
3.750000E-01 8.750000E-01 -3.188455E-01
3.750000E-01 9.375000E-01 -3.379982E-01
3.750000E-01 1.000000E+00 -3.451372E-01
3.125000E-01 1.000000E+00 -5.003501E-01
2.875000E-01 9.125000E-01 -5.361441E-01
3.312500E-01 9.187500E-01 -4.403294E-01
3.375000E-01 9.625000E-01 -4.364339E-01
2.937500E-01 9.562500E-01 -5.383103E-01
4.375000E-01 8.750000E-01 -1.623304E-01
5.000000E-01 8.750000E-01 4.778740E-04
5.000000E-01 9.375000E-01 2.690089E-04
5.000000E-01 1.000000E+00 4.987909E-04
4.375000E-01 1.000000E+00 -1.754404E-01
4.125000E-01 9.125000E-01 -2.349461E-01
4.562500E-01 9.187500E-01 -1.188952E-01
4.625000E-01 9.625000E-01 -1.046888E-01
4.187500E-01 9.562500E-01 -2.249333E-01
3.125000E-01 7.500000E-01 -3.541282E-01
3.750000E-01 7.500000E-01 -2.438713E-01
3.750000E-01 8.125000E-01 -2.867778E-01
2.875000E-01 7.875000E-01 -4.375770E-01
3.312500E-01 7.937500E-01 -3.626328E-01
3.375000E-01 8.375000E-01 -3.836209E-01
2.937500E-01 8.312500E-01 -4.686833E-01
4.375000E-01 7.500000E-01 -1.244720E-01
5.000000E-01 7.500000E-01 5.314356E-04
5.000000E-01 8.125000E-01 -3.570380E-05
4.125000E-01 7.875000E-01 -1.918706E-01
4.562500E-01 7.937500E-01 -9.775744E-02
4.625000E-01 8.375000E-01 -9.218375E-02
4.187500E-01 8.312500E-01 -1.957260E-01
0.000000E+00 6.250000E-01 -3.451372E-01
6.250000E-02 6.250000E-01 -3.379982E-01
1.250000E-01 6.250000E-01 -3.188455E-01
1.250000E-01 6.875000E-01 -4.624622E-01
0.000000E+00 6.875000E-01 -5.003501E-01
3.750000E-02 6.625000E-01 -4.364339E-01
8.125000E-02 6.687500E-01 -4.403294E-01
8.750000E-02 7.125000E-01 -5.361441E-01
4.375000E-02 7.062500E-01 -5.383103E-01
1.875000E-01 6.250000E-01 -2.867778E-01
2.500000E-01 6.250000E-01 -2.438713E-01
2.500000E-01 6.875000E-01 -3.541282E-01
1.625000E-01 6.625000E-01 -3.836209E-01
2.062500E-01 6.687500E-01 -3.626328E-01
2.125000E-01 7.125000E-01 -4.375770E-01
1.687500E-01 7.062500E-01 -4.686833E-01
0.000000E+00 5.000000E-01 4.987909E-04
6.250000E-02 5.000000E-01 2.690089E-04
1.250000E-01 5.000000E-01 4.778740E-04
1.250000E-01 5.625000E-01 -1.623304E-01
0.000000E+00 5.625000E-01 -1.754404E-01
3.750000E-02 5.375000E-01 -1.046888E-01
8.125000E-02 5.437500E-01 -1.188952E-01
8.750000E-02 5.875000E-01 -2.349461E-01
4.375000E-02 5.812500E-01 -2.249333E-01
1.875000E-01 5.000000E-01 -3.570380E-05
2.500000E-01 5.000000E-01 5.314356E-04
2.500000E-01 5.625000E-01 -1.244720E-01
1.625000E-01 5.375000E-01 -9.218375E-02
2.062500E-01 5.437500E-01 -9.775744E-02
2.125000E-01 5.875000E-01 -1.918706E-01
1.687500E-01 5.812500E-01 -1.957260E-01
3.125000E-01 6.250000E-01 -1.918172E-01
3.750000E-01 6.250000E-01 -1.317010E-01
3.750000E-01 6.875000E-01 -1.918172E-01
2.875000E-01 6.625000E-01 -2.723255E-01
3.312500E-01 6.687500E-01 -2.296563E-01
3.375000E-01 7.125000E-01 -2.723255E-01
2.937500E-01 7.062500E-01 -3.276315E-01
4.375000E-01 6.250000E-01 -6.759277E-02
5.000000E-01 6.250000E-01 5.761292E-04
5.000000E-01 6.875000E-01 -2.513988E-04
4.125000E-01 6.625000E-01 -1.195094E-01
4.562500E-01 6.687500E-01 -6.165988E-02
4.625000E-01 7.125000E-01 -6.556254E-02
4.187500E-01 7.062500E-01 -1.366438E-01
3.125000E-01 5.000000E-01 -2.513988E-04
3.750000E-01 5.000000E-01 5.761292E-04
3.750000E-01 5.625000E-01 -6.759277E-02
2.875000E-01 5.375000E-01 -6.556254E-02
3.312500E-01 5.437500E-01 -6.165988E-02
3.375000E-01 5.875000E-01 -1.195094E-01
2.937500E-01 5.812500E-01 -1.366438E-01
4.375000E-01 5.000000E-01 -3.638753E-04
5.000000E-01 5.000000E-01 5.931958E-04
5.000000E-01 5.625000E-01 -3.638753E-04
4.125000E-01 5.375000E-01 -2.889279E-02
4.562500E-01 5.437500E-01 -1.611225E-02
4.625000E-01 5.875000E-01 -2.889279E-02
4.187500E-01 5.812500E-01 -5.669332E-02
5.625000E-01 8.750000E-01 1.625470E-01
6.250000E-01 8.750000E-01 3.197612E-01
6.250000E-01 9.375000E-01 3.385239E-01
6.250000E-01 1.000000E+00 3.460861E-01
5.625000E-01 1.000000E+00 1.762044E-01
5.375000E-01 9.125000E-01 1.020485E-01
5.812500E-01 9.187500E-01 2.206690E-01
5.875000E-01 9.625000E-01 2.430217E-01
5.437500E-01 9.562500E-01 1.227136E-01
6.875000E-01 8.750000E-01 4.627104E-01
7.500000E-01 8.750000E-01 5.903943E-01
7.500000E-01 9.375000E-01 6.252653E-01
7.500000E-01 1.000000E+00 6.390061E-01
6.875000E-01 1.000000E+00 5.010498E-01
6.625000E-01 9.125000E-01 4.235369E-01
7.062500E-01 9.187500E-01 5.266663E-01
7.125000E-01 9.625000E-01 5.537595E-01
6.687500E-01 9.562500E-01 4.517059E-01
5.625000E-01 7.500000E-01 1.241784E-01
6.250000E-01 7.500000E-01 2.448972E-01
6.250000E-01 8.125000E-01 2.867500E-01
5.375000E-01 7.875000E-01 8.308743E-02
5.812500E-01 7.937500E-01 1.820407E-01
5.875000E-01 8.375000E-01 2.133234E-01
5.437500E-01 8.312500E-01 1.070652E-01
6.875000E-01 7.500000E-01 3.539682E-01
7.500000E-01 7.500000E-01 4.520257E-01
7.500000E-01 8.125000E-01 5.299193E-01
6.625000E-01 7.875000E-01 3.454368E-01
7.062500E-01 7.937500E-01 4.341650E-01
7.125000E-01 8.375000E-01 4.863896E-01
6.687500E-01 8.312500E-01 3.935930E-01
8.125000E-01 8.750000E-01 6.924581E-01
8.750000E-01 8.750000E-01 7.711706E-01
8.750000E-01 9.375000E-01 8.168174E-01
8.750000E-01 1.000000E+00 8.346321E-01
8.125000E-01 1.000000E+00 7.496264E-01
7.875000E-01 9.125000E-01 6.805687E-01
8.312500E-01 9.187500E-01 7.524997E-01
8.375000E-01 9.625000E-01 7.801996E-01
7.937500E-01 9.562500E-01 7.119470E-01
9.375000E-01 8.750000E-01 8.168174E-01
1.000000E+00 8.750000E-01 8.346321E-01
1.000000E+00 9.375000E-01 8.840145E-01
1.000000E+00 1.000000E+00 9.028681E-01
9.375000E-01 1.000000E+00 8.840145E-01
9.125000E-01 9.125000E-01 8.339967E-01
9.562500E-01 9.187500E-01 8.637722E-01
9.625000E-01 9.625000E-01 8.877826E-01
9.187500E-01 9.562500E-01 8.637722E-01
8.125000E-01 7.500000E-01 5.299193E-01
8.750000E-01 7.500000E-01 5.903943E-01
8.750000E-01 8.125000E-01 6.924581E-01
7.875000E-01 7.875000E-01 5.552395E-01
8.312500E-01 7.937500E-01 6.202361E-01
8.375000E-01 8.375000E-01 6.854433E-01
7.937500E-01 8.312500E-01 6.202361E-01
9.375000E-01 7.500000E-01 6.252653E-01
1.000000E+00 7.500000E-01 6.390061E-01
1.000000E+00 8.125000E-01 7.496264E-01
9.125000E-01 7.875000E-01 6.805687E-01
9.562500E-01 7.937500E-01 7.119470E-01
9.625000E-01 8.375000E-01 7.801996E-01
9.187500E-01 8.312500E-01 7.524997E-01
5.625000E-01 6.250000E-01 6.697586E-02
6.250000E-01 6.250000E-01 1.328185E-01
6.250000E-01 6.875000E-01 1.914018E-01
5.375000E-01 6.625000E-01 5.155345E-02
5.812500E-01 6.687500E-01 1.157745E-01
5.875000E-01 7.125000E-01 1.512291E-01
5.437500E-01 7.062500E-01 7.519557E-02
6.875000E-01 6.250000E-01 1.914018E-01
7.500000E-01 6.250000E-01 2.448972E-01
7.500000E-01 6.875000E-01 3.539682E-01
6.625000E-01 6.625000E-01 2.148188E-01
7.062500E-01 6.687500E-01 2.756350E-01
7.125000E-01 7.125000E-01 3.450460E-01
6.687500E-01 7.062500E-01 2.756350E-01
5.625000E-01 5.000000E-01 -3.638753E-04
6.250000E-01 5.000000E-01 5.761292E-04
6.250000E-01 5.625000E-01 6.697586E-02
5.375000E-01 5.375000E-01 1.223342E-02
5.812500E-01 5.437500E-01 3.194459E-02
5.875000E-01 5.875000E-01 6.617737E-02
5.437500E-01 5.812500E-01 3.194459E-02
6.875000E-01 5.000000E-01 -2.513988E-04
7.500000E-01 5.000000E-01 5.314356E-04
7.500000E-01 5.625000E-01 1.241784E-01
6.625000E-01 5.375000E-01 5.155345E-02
7.062500E-01 5.437500E-01 7.519557E-02
7.125000E-01 5.875000E-01 1.512291E-01
6.687500E-01 5.812500E-01 1.157745E-01
8.125000E-01 6.250000E-01 2.867500E-01
8.750000E-01 6.250000E-01 3.197612E-01
8.750000E-01 6.875000E-01 4.627104E-01
7.875000E-01 6.625000E-01 3.454368E-01
8.312500E-01 6.687500E-01 3.935930E-01
8.375000E-01 7.125000E-01 4.863896E-01
7.937500E-01 7.062500E-01 4.341650E-01
9.375000E-01 6.250000E-01 3.385239E-01
1.000000E+00 6.250000E-01 3.460861E-01
1.000000E+00 6.875000E-01 5.010498E-01
9.125000E-01 6.625000E-01 4.235369E-01
9.562500E-01 6.687500E-01 4.517059E-01
9.625000E-01 7.125000E-01 5.537595E-01
9.187500E-01 7.062500E-01 5.266663E-01
8.125000E-01 5.000000E-01 -3.570380E-05
8.750000E-01 5.000000E-01 4.778740E-04
8.750000E-01 5.625000E-01 1.625470E-01
7.875000E-01 5.375000E-01 8.308743E-02
8.312500E-01 5.437500E-01 1.070652E-01
8.375000E-01 5.875000E-01 2.133234E-01
7.937500E-01 5.812500E-01 1.820407E-01
9.375000E-01 5.000000E-01 2.690089E-04
1.000000E+00 5.000000E-01 4.987909E-04
1.000000E+00 5.625000E-01 1.762044E-01
9.125000E-01 5.375000E-01 1.020485E-01
9.562500E-01 5.437500E-01 1.227136E-01
9.625000E-01 5.875000E-01 2.430217E-01
9.187500E-01 5.812500E-01 2.206690E-01
0.000000E+00 3.750000E-01 3.460861E-01
6.250000E-02 3.750000E-01 3.385239E-01
[...]
CELL_DATA 896
SCALARS sol float 1
LOOKUP_TABLE default
-8.369268E-01
-8.399899E-01
-8.593856E-01
-8.067683E-01
-8.625098E-01
-8.101104E-01
-8.760136E-01
-7.843092E-01
-7.806263E-01
-8.625098E-01
-8.101104E-01
-7.809053E-01
-8.904055E-01
-7.401726E-01
-7.400442E-01
-8.760136E-01
-8.399899E-01
-7.809053E-01
-7.394749E-01
-8.904055E-01
-7.220497E-01
-6.963337E-01
-7.141895E-01
-8.593856E-01
-8.369268E-01
-7.394749E-01
-7.806263E-01
-7.109911E-01
-6.737363E-01
-6.549037E-01
-6.588212E-01
-8.067683E-01
-7.141895E-01
-7.109911E-01
-7.400442E-01
-6.596772E-01
-6.363625E-01
-6.004343E-01
-6.327926E-01
-7.843092E-01
-6.588212E-01
-6.596772E-01
-7.220497E-01
-6.197097E-01
-5.835086E-01
-5.589561E-01
-5.664130E-01
-5.786797E-01
-7.401726E-01
-6.363625E-01
-6.327926E-01
-6.197097E-01
-6.737363E-01
-5.729001E-01
-5.294011E-01
-4.916981E-01
-5.049279E-01
-5.293674E-01
-6.963337E-01
-5.835086E-01
-5.786797E-01
-5.729001E-01
-6.549037E-01
-5.177269E-01
-4.796452E-01
-5.069142E-01
-4.716912E-01
-4.273070E-01
-4.786941E-01
-5.294011E-01
-5.664130E-01
-5.293674E-01
-5.177269E-01
-6.004343E-01
-4.728332E-01
-4.072124E-01
-4.382555E-01
-4.049205E-01
-3.731898E-01
-4.229644E-01
-4.796452E-01
-5.069142E-01
-5.049279E-01
-4.786941E-01
-4.728332E-01
-5.589561E-01
-4.142686E-01
-3.657244E-01
-3.883095E-01
-4.049790E-01
-3.026896E-01
-3.847793E-01
-4.072124E-01
-4.382555E-01
-4.716912E-01
-4.229644E-01
-4.142686E-01
-4.916981E-01
-3.776201E-01
-2.972633E-01
-3.297481E-01
-3.443438E-01
-2.485036E-01
-2.659592E-01
-3.202108E-01
-3.657244E-01
-3.883095E-01
-4.049790E-01
-4.049205E-01
-3.847793E-01
-3.776201E-01
-4.273070E-01
-3.180284E-01
-2.387073E-01
-2.671164E-01
-2.977606E-01
-1.683542E-01
-1.929249E-01
-2.901083E-01
-2.972633E-01
-3.297481E-01
-3.443438E-01
-3.731898E-01
-3.202108E-01
-3.180284E-01
-2.765378E-01
-2.256340E-01
-1.720572E-01
-2.247915E-01
-2.408399E-01
-1.495057E-01
-9.321013E-02
-2.360047E-01
-2.387073E-01
-2.659592E-01
-2.671164E-01
-2.977606E-01
-3.026896E-01
-2.901083E-01
-2.765378E-01
-2.312663E-01
-1.500800E-01
-9.358255E-02
-1.617847E-01
-1.867379E-01
-7.443830E-02
-3.464032E-02
-1.907774E-01
-1.720572E-01
-2.256340E-01
-1.929249E-01
-2.247915E-01
-2.408399E-01
-2.485036E-01
-2.360047E-01
-2.312663E-01
-1.843915E-01
-1.285557E-01
-8.467874E-02
-3.938276E-02
-1.380333E-01
-1.683290E-01
4.116047E-02
-1.493234E-01
-9.358255E-02
-1.500800E-01
-1.495057E-01
-1.617847E-01
-1.867379E-01
-1.683542E-01
-1.907774E-01
-1.843915E-01
-1.476759E-01
-6.332563E-02
-3.058053E-02
3.426512E-02
-7.389932E-02
-1.088928E-01
9.980561E-02
7.501037E-02
-1.059377E-01
-3.938276E-02
-8.467874E-02
-1.285557E-01
-7.443830E-02
-1.380333E-01
-1.683290E-01
-9.321013E-02
-1.493234E-01
-1.476759E-01
-1.062677E-01
-3.242057E-02
3.583578E-02
8.835779E-02
-6.316769E-02
-8.795540E-02
1.806466E-01
1.484770E-01
-8.292067E-02
3.426512E-02
-3.058053E-02
-6.332563E-02
-3.464032E-02
-7.389932E-02
-1.088928E-01
-1.059377E-01
-1.062677E-01
-8.532904E-02
2.786105E-02
9.003002E-02
6.337230E-02
1.617548E-01
-2.176084E-02
-4.249127E-02
1.954681E-01
2.551041E-01
-4.289217E-02
8.835779E-02
7.501037E-02
3.583578E-02
-3.242057E-02
4.116047E-02
-6.316769E-02
-8.795540E-02
-8.292067E-02
-8.532904E-02
-5.105963E-02
6.926577E-02
1.609785E-01
1.240644E-01
2.343258E-01
2.515853E-02
-2.044505E-02
2.674049E-01
3.092106E-01
-3.196981E-02
1.617548E-01
9.003002E-02
1.484770E-01
6.337230E-02
2.786105E-02
9.980561E-02
-2.176084E-02
-4.249127E-02
-4.289217E-02
-5.105963E-02
-3.389945E-02
6.663515E-02
1.297688E-01
1.674764E-01
2.318772E-01
2.929847E-01
4.216587E-02
1.729273E-02
3.787720E-01
-9.560179E-03
2.343258E-01
1.609785E-01
1.954681E-01
1.240644E-01
6.926577E-02
1.806466E-01
2.515853E-02
-2.044505E-02
-3.196981E-02
-3.389945E-02
-1.512297E-02
1.168677E-01
1.837054E-01
2.273714E-01
2.732782E-01
3.606073E-01
8.084117E-02
3.970181E-02
4.329473E-01
4.045889E-01
1.071895E-02
2.929847E-01
2.318772E-01
1.674764E-01
2.674049E-01
1.297688E-01
6.663515E-02
2.551041E-01
4.216587E-02
1.729273E-02
-9.560179E-03
-1.512297E-02
-5.294309E-03
1.140664E-01
1.734349E-01
2.378959E-01
3.333681E-01
4.020028E-01
7.810127E-02
3.316552E-02
5.021717E-01
4.673030E-01
1.460471E-02
3.606073E-01
2.732782E-01
2.273714E-01
3.092106E-01
1.837054E-01
1.168677E-01
8.084117E-02
3.970181E-02
1.071895E-02
-5.294309E-03
4.154247E-03
1.528018E-01
1.958427E-01
2.923613E-01
3.920215E-01
3.419266E-01
4.709712E-01
1.051896E-01
5.503260E-02
5.107106E-01
5.646051E-01
2.537420E-02
4.020028E-01
4.045889E-01
3.333681E-01
2.378959E-01
3.787720E-01
1.734349E-01
1.140664E-01
7.810127E-02
3.316552E-02
1.460471E-02
4.154247E-03
4.154247E-03
1.466649E-01
2.373113E-01
3.147674E-01
4.475643E-01
3.910649E-01
5.265903E-01
8.865725E-02
4.335551E-02
5.685637E-01
6.060103E-01
1.460471E-02
4.709712E-01
3.920215E-01
4.673030E-01
3.419266E-01
2.923613E-01
4.329473E-01
1.958427E-01
1.528018E-01
1.051896E-01
5.503260E-02
2.537420E-02
4.154247E-03
-5.294309E-03
1.796797E-01
2.915001E-01
2.272852E-01
3.778567E-01
4.380492E-01
5.131648E-01
5.807753E-01
8.865725E-02
5.503260E-02
6.587394E-01
1.071895E-02
5.265903E-01
4.475643E-01
5.107106E-01
3.910649E-01
3.147674E-01
5.021717E-01
2.373113E-01
1.466649E-01
8.865725E-02
4.335551E-02
1.460471E-02
-5.294309E-03
-1.512297E-02
1.796797E-01
3.248831E-01
2.553629E-01
4.133863E-01
4.834913E-01
5.355677E-01
6.320761E-01
1.051896E-01
3.316552E-02
7.001932E-01
6.725936E-01
-9.560179E-03
5.807753E-01
5.131648E-01
4.380492E-01
5.685637E-01
3.778567E-01
2.915001E-01
5.646051E-01
2.272852E-01
1.796797E-01
8.865725E-02
5.503260E-02
1.071895E-02
-1.512297E-02
-3.389945E-02
1.466649E-01
2.272852E-01
2.987720E-01
3.836800E-01
4.720367E-01
5.801832E-01
6.544737E-01
7.810127E-02
3.970181E-02
7.472577E-01
7.150051E-01
-3.196981E-02
6.320761E-01
5.355677E-01
4.834913E-01
6.060103E-01
4.133863E-01
3.248831E-01
2.553629E-01
1.796797E-01
1.051896E-01
3.316552E-02
-9.560179E-03
-3.389945E-02
-5.105963E-02
1.528018E-01
2.373113E-01
3.248831E-01
3.836800E-01
5.123948E-01
6.343628E-01
5.684650E-01
7.085088E-01
8.084117E-02
1.729273E-02
7.482154E-01
7.881527E-01
-4.289217E-02
6.544737E-01
6.725936E-01
5.801832E-01
4.720367E-01
6.587394E-01
3.836800E-01
2.987720E-01
2.272852E-01
1.466649E-01
7.810127E-02
3.970181E-02
-3.196981E-02
-5.105963E-02
-8.532904E-02
1.140664E-01
1.958427E-01
2.915001E-01
4.133863E-01
5.123948E-01
6.660459E-01
5.985706E-01
7.387095E-01
4.216587E-02
-2.044505E-02
7.831722E-01
8.105497E-01
-8.292067E-02
7.085088E-01
6.343628E-01
7.150051E-01
5.684650E-01
5.123948E-01
7.001932E-01
3.836800E-01
3.248831E-01
2.373113E-01
1.528018E-01
8.084117E-02
1.729273E-02
-4.289217E-02
-8.532904E-02
-1.062677E-01
1.168677E-01
1.734349E-01
3.147674E-01
4.720367E-01
3.778567E-01
5.684650E-01
6.419719E-01
7.163574E-01
7.801626E-01
2.515853E-02
-4.249127E-02
8.384072E-01
-1.059377E-01
7.387095E-01
6.660459E-01
7.482154E-01
5.985706E-01
5.123948E-01
7.472577E-01
4.133863E-01
2.915001E-01
1.958427E-01
1.140664E-01
4.216587E-02
-2.044505E-02
-8.292067E-02
-1.062677E-01
-1.476759E-01
6.663515E-02
1.837054E-01
2.923613E-01
4.834913E-01
3.910649E-01
5.801832E-01
6.660459E-01
7.163574E-01
8.073282E-01
-2.176084E-02
-8.795540E-02
8.608063E-01
8.381954E-01
-1.493234E-01
7.801626E-01
7.163574E-01
6.419719E-01
7.831722E-01
5.684650E-01
4.720367E-01
7.881527E-01
3.778567E-01
3.147674E-01
1.734349E-01
1.168677E-01
2.515853E-02
-4.249127E-02
-1.059377E-01
-1.476759E-01
-1.843915E-01
6.926577E-02
2.378959E-01
1.297688E-01
3.419266E-01
4.380492E-01
5.355677E-01
6.343628E-01
7.387095E-01
8.073282E-01
-6.316769E-02
-1.088928E-01
8.785231E-01
8.538470E-01
-1.907774E-01
8.073282E-01
7.163574E-01
6.660459E-01
8.105497E-01
5.801832E-01
4.834913E-01
3.910649E-01
2.923613E-01
1.837054E-01
6.663515E-02
-2.176084E-02
-8.795540E-02
-1.493234E-01
-1.843915E-01
-2.312663E-01
2.786105E-02
2.273714E-01
1.240644E-01
3.333681E-01
4.475643E-01
5.131648E-01
6.544737E-01
7.801626E-01
7.085088E-01
8.381954E-01
-7.389932E-02
-1.683290E-01
8.717756E-01
8.915551E-01
-2.360047E-01
8.073282E-01
8.381954E-01
7.387095E-01
6.343628E-01
8.384072E-01
5.355677E-01
4.380492E-01
3.419266E-01
2.378959E-01
1.297688E-01
6.926577E-02
-6.316769E-02
-1.088928E-01
-1.907774E-01
-2.312663E-01
-2.765378E-01
6.337230E-02
-3.242057E-02
1.674764E-01
2.732782E-01
3.920215E-01
5.265903E-01
6.320761E-01
7.831722E-01
7.150051E-01
8.384072E-01
-1.380333E-01
-1.867379E-01
8.785231E-01
8.915551E-01
-2.901083E-01
8.381954E-01
7.801626E-01
8.538470E-01
7.085088E-01
6.544737E-01
8.608063E-01
5.131648E-01
4.475643E-01
3.333681E-01
2.273714E-01
1.240644E-01
2.786105E-02
-7.389932E-02
-1.683290E-01
-2.360047E-01
-2.765378E-01
-3.180284E-01
3.583578E-02
-6.332563E-02
1.609785E-01
2.318772E-01
4.020028E-01
5.807753E-01
4.709712E-01
6.725936E-01
7.482154E-01
8.105497E-01
8.608063E-01
-1.617847E-01
-2.408399E-01
-3.202108E-01
8.384072E-01
7.831722E-01
8.717756E-01
7.150051E-01
6.320761E-01
8.785231E-01
5.265903E-01
3.920215E-01
2.732782E-01
1.674764E-01
6.337230E-02
-3.242057E-02
-1.380333E-01
-1.867379E-01
-2.901083E-01
-3.180284E-01
-3.776201E-01
9.003002E-02
-3.058053E-02
-1.285557E-01
2.343258E-01
3.606073E-01
5.685637E-01
4.673030E-01
6.587394E-01
7.472577E-01
7.881527E-01
-2.247915E-01
-2.977606E-01
-3.847793E-01
8.608063E-01
8.105497E-01
7.482154E-01
8.785231E-01
6.725936E-01
5.807753E-01
8.915551E-01
4.709712E-01
4.020028E-01
2.318772E-01
1.609785E-01
3.583578E-02
-6.332563E-02
-1.617847E-01
-2.408399E-01
-3.202108E-01
-3.776201E-01
-4.142686E-01
8.835779E-02
-8.467874E-02
-1.500800E-01
2.929847E-01
1.617548E-01
4.045889E-01
5.107106E-01
6.060103E-01
7.001932E-01
-2.671164E-01
-3.443438E-01
-4.229644E-01
7.881527E-01
7.472577E-01
8.915551E-01
6.587394E-01
5.685637E-01
4.673030E-01
3.606073E-01
2.343258E-01
9.003002E-02
-3.058053E-02
-1.285557E-01
-2.247915E-01
-2.977606E-01
-3.847793E-01
-4.142686E-01
-4.728332E-01
3.426512E-02
-9.358255E-02
-2.256340E-01
2.674049E-01
1.484770E-01
3.787720E-01
5.021717E-01
5.646051E-01
-3.297481E-01
-4.049790E-01
-4.786941E-01
7.001932E-01
6.060103E-01
5.107106E-01
4.045889E-01
2.929847E-01
1.617548E-01
8.835779E-02
-8.467874E-02
-1.500800E-01
-2.671164E-01
-3.443438E-01
-4.229644E-01
-4.728332E-01
-5.177269E-01
7.501037E-02
-3.938276E-02
-1.720572E-01
-2.387073E-01
1.954681E-01
3.092106E-01
4.329473E-01
-3.883095E-01
-4.382555E-01
-5.293674E-01
5.646051E-01
5.021717E-01
3.787720E-01
2.674049E-01
1.484770E-01
3.426512E-02
-9.358255E-02
-2.256340E-01
-3.297481E-01
-4.049790E-01
-4.786941E-01
-5.177269E-01
-5.729001E-01
4.116047E-02
-7.443830E-02
-1.929249E-01
-2.972633E-01
1.806466E-01
2.551041E-01
-4.072124E-01
-5.069142E-01
-5.786797E-01
4.329473E-01
3.092106E-01
1.954681E-01
7.501037E-02
-3.938276E-02
-1.720572E-01
-2.387073E-01
-3.883095E-01
-4.382555E-01
-5.293674E-01
-5.729001E-01
-6.197097E-01
9.980561E-02
-3.464032E-02
-1.495057E-01
-2.659592E-01
-3.657244E-01
-4.796452E-01
-5.294011E-01
-6.327926E-01
2.551041E-01
1.806466E-01
4.116047E-02
-7.443830E-02
-1.929249E-01
-2.972633E-01
-4.072124E-01
-5.069142E-01
-5.786797E-01
-6.197097E-01
-6.596772E-01
-9.321013E-02
-1.683542E-01
-3.026896E-01
-4.049205E-01
-5.049279E-01
-5.835086E-01
-6.588212E-01
9.980561E-02
-3.464032E-02
-1.495057E-01
-2.659592E-01
-3.657244E-01
-4.796452E-01
-5.294011E-01
-6.327926E-01
-6.596772E-01
-7.109911E-01
-2.485036E-01
-3.731898E-01
-4.716912E-01
-5.664130E-01
-6.363625E-01
-7.141895E-01
-9.321013E-02
-1.683542E-01
-3.026896E-01
-4.049205E-01
-5.049279E-01
-5.835086E-01
-6.588212E-01
-7.109911E-01
-7.394749E-01
-4.273070E-01
-4.916981E-01
-6.004343E-01
-6.737363E-01
-7.400442E-01
-2.485036E-01
-3.731898E-01
-4.716912E-01
-5.664130E-01
-6.363625E-01
-7.141895E-01
-7.394749E-01
-7.809053E-01
-5.589561E-01
-6.549037E-01
-7.220497E-01
-7.806263E-01
-4.273070E-01
-4.916981E-01
-6.004343E-01
-6.737363E-01
-7.400442E-01
-7.809053E-01
-8.101104E-01
-6.963337E-01
-7.401726E-01
-8.067683E-01
-5.589561E-01
-6.549037E-01
-7.220497E-01
-7.806263E-01
-8.101104E-01
-8.399899E-01
-7.843092E-01
-8.369268E-01
-6.963337E-01
-7.401726E-01
-8.067683E-01
-8.399899E-01
-8.625098E-01
-8.593856E-01
-7.843092E-01
-8.369268E-01
-8.625098E-01
-8.760136E-01
-8.593856E-01
-8.760136E-01
-8.904055E-01
-8.904055E-01
