# vtk DataFile Version 2.0
Grille
ASCII
DATASET POLYDATA
POINTS 481 float
0.000000E+00 8.750000E-01 -9.062223E-01
6.250000E-02 8.750000E-01 -8.870224E-01
1.250000E-01 8.750000E-01 -8.371753E-01
1.250000E-01 9.375000E-01 -8.870224E-01
1.250000E-01 1.000000E+00 -9.062223E-01
6.250000E-02 1.000000E+00 -9.602086E-01
0.000000E+00 1.000000E+00 -9.814411E-01
0.000000E+00 9.375000E-01 -9.602086E-01
3.750000E-02 9.125000E-01 -9.345427E-01
8.125000E-02 9.187500E-01 -9.162043E-01
8.750000E-02 9.625000E-01 -9.345427E-01
4.375000E-02 9.562500E-01 -9.604078E-01
1.875000E-01 8.750000E-01 -7.520139E-01
2.500000E-01 8.750000E-01 -6.406064E-01
2.500000E-01 9.375000E-01 -6.788281E-01
2.500000E-01 1.000000E+00 -6.934083E-01
1.875000E-01 1.000000E+00 -8.138352E-01
1.625000E-01 9.125000E-01 -8.210343E-01
2.062500E-01 9.187500E-01 -7.547783E-01
2.125000E-01 9.625000E-01 -7.623958E-01
1.687500E-01 9.562500E-01 -8.362662E-01
0.000000E+00 7.500000E-01 -6.934083E-01
6.250000E-02 7.500000E-01 -6.788281E-01
1.250000E-01 7.500000E-01 -6.406064E-01
1.250000E-01 8.125000E-01 -7.520139E-01
0.000000E+00 8.125000E-01 -8.138352E-01
3.750000E-02 7.875000E-01 -7.623958E-01
8.125000E-02 7.937500E-01 -7.547783E-01
8.750000E-02 8.375000E-01 -8.210343E-01
4.375000E-02 8.312500E-01 -8.362662E-01
1.875000E-01 7.500000E-01 -5.756771E-01
2.500000E-01 7.500000E-01 -4.901677E-01
2.500000E-01 8.125000E-01 -5.756771E-01
1.625000E-01 7.875000E-01 -6.699597E-01
2.062500E-01 7.937500E-01 -6.217724E-01
2.125000E-01 8.375000E-01 -6.699597E-01
1.687500E-01 8.312500E-01 -7.282149E-01
3.125000E-01 8.750000E-01 -5.025091E-01
3.750000E-01 8.750000E-01 -3.465087E-01
3.750000E-01 9.375000E-01 -3.673128E-01
3.750000E-01 1.000000E+00 -3.750668E-01
3.125000E-01 1.000000E+00 -5.436639E-01
2.875000E-01 9.125000E-01 -5.825445E-01
3.312500E-01 9.187500E-01 -4.784676E-01
3.375000E-01 9.625000E-01 -4.742362E-01
2.937500E-01 9.562500E-01 -5.848976E-01
4.375000E-01 8.750000E-01 -1.764976E-01
5.000000E-01 8.750000E-01 3.491508E-04
5.000000E-01 9.375000E-01 1.223786E-04
5.000000E-01 1.000000E+00 3.725361E-04
4.375000E-01 1.000000E+00 -1.907381E-01
4.125000E-01 9.125000E-01 -2.553750E-01
4.562500E-01 9.187500E-01 -1.293169E-01
4.625000E-01 9.625000E-01 -1.138854E-01
4.187500E-01 9.562500E-01 -2.444988E-01
3.125000E-01 7.500000E-01 -3.848337E-01
3.750000E-01 7.500000E-01 -2.650694E-01
3.750000E-01 8.125000E-01 -3.116758E-01
2.875000E-01 7.875000E-01 -4.754781E-01
3.312500E-01 7.937500E-01 -3.940714E-01
3.375000E-01 8.375000E-01 -4.168695E-01
2.937500E-01 8.312500E-01 -5.092669E-01
4.375000E-01 7.500000E-01 -1.353746E-01
5.000000E-01 7.500000E-01 4.075372E-04
5.000000E-01 8.125000E-01 -2.086029E-04
4.125000E-01 7.875000E-01 -2.085850E-01
4.562500E-01 7.937500E-01 -1.063565E-01
4.625000E-01 8.375000E-01 -1.003023E-01
4.187500E-01 8.312500E-01 -2.127731E-01
0.000000E+00 6.250000E-01 -3.750668E-01
6.250000E-02 6.250000E-01 -3.673128E-01
1.250000E-01 6.250000E-01 -3.465087E-01
1.250000E-01 6.875000E-01 -5.025091E-01
0.000000E+00 6.875000E-01 -5.436639E-01
3.750000E-02 6.625000E-01 -4.742362E-01
8.125000E-02 6.687500E-01 -4.784676E-01
8.750000E-02 7.125000E-01 -5.825445E-01
4.375000E-02 7.062500E-01 -5.848976E-01
1.875000E-01 6.250000E-01 -3.116758E-01
2.500000E-01 6.250000E-01 -2.650694E-01
2.500000E-01 6.875000E-01 -3.848337E-01
1.625000E-01 6.625000E-01 -4.168695E-01
2.062500E-01 6.687500E-01 -3.940714E-01
2.125000E-01 7.125000E-01 -4.754781E-01
1.687500E-01 7.062500E-01 -5.092669E-01
0.000000E+00 5.000000E-01 3.725361E-04
6.250000E-02 5.000000E-01 1.223786E-04
1.250000E-01 5.000000E-01 3.491508E-04
1.250000E-01 5.625000E-01 -1.764976E-01
0.000000E+00 5.625000E-01 -1.907381E-01
3.750000E-02 5.375000E-01 -1.138854E-01
8.125000E-02 5.437500E-01 -1.293169E-01
8.750000E-02 5.875000E-01 -2.553750E-01
4.375000E-02 5.812500E-01 -2.444988E-01
1.875000E-01 5.000000E-01 -2.086029E-04
2.500000E-01 5.000000E-01 4.075372E-04
2.500000E-01 5.625000E-01 -1.353746E-01
1.625000E-01 5.375000E-01 -1.003023E-01
2.062500E-01 5.437500E-01 -1.063565E-01
2.125000E-01 5.875000E-01 -2.085850E-01
1.687500E-01 5.812500E-01 -2.127731E-01
3.125000E-01 6.250000E-01 -2.085268E-01
3.750000E-01 6.250000E-01 -1.432268E-01
3.750000E-01 6.875000E-01 -2.085268E-01
2.875000E-01 6.625000E-01 -2.959772E-01
3.312500E-01 6.687500E-01 -2.496285E-01
3.375000E-01 7.125000E-01 -2.959772E-01
2.937500E-01 7.062500E-01 -3.560523E-01
4.375000E-01 6.250000E-01 -7.359052E-02
5.000000E-01 6.250000E-01 4.563780E-04
5.000000E-01 6.875000E-01 -4.425829E-04
4.125000E-01 6.625000E-01 -1.299839E-01
4.562500E-01 6.687500E-01 -6.714603E-02
4.625000E-01 7.125000E-01 -7.138539E-02
4.187500E-01 7.062500E-01 -1.485960E-01
3.125000E-01 5.000000E-01 -4.425829E-04
3.750000E-01 5.000000E-01 4.563780E-04
3.750000E-01 5.625000E-01 -7.359052E-02
2.875000E-01 5.375000E-01 -7.138539E-02
3.312500E-01 5.437500E-01 -6.714603E-02
3.375000E-01 5.875000E-01 -1.299839E-01
2.937500E-01 5.812500E-01 -1.485960E-01
4.375000E-01 5.000000E-01 -5.645193E-04
5.000000E-01 5.000000E-01 4.750403E-04
5.000000E-01 5.625000E-01 -5.645193E-04
4.125000E-01 5.375000E-01 -3.155348E-02
4.562500E-01 5.437500E-01 -1.767081E-02
4.625000E-01 5.875000E-01 -3.155348E-02
4.187500E-01 5.812500E-01 -6.175134E-02
5.625000E-01 8.750000E-01 1.763932E-01
6.250000E-01 8.750000E-01 3.471635E-01
6.250000E-01 9.375000E-01 3.675442E-01
6.250000E-01 1.000000E+00 3.757589E-01
5.625000E-01 1.000000E+00 1.912283E-01
5.375000E-01 9.125000E-01 1.106778E-01
5.812500E-01 9.187500E-01 2.395271E-01
5.875000E-01 9.625000E-01 2.638072E-01
5.437500E-01 9.562500E-01 1.331249E-01
6.875000E-01 8.750000E-01 5.024389E-01
7.500000E-01 8.750000E-01 6.411325E-01
7.500000E-01 9.375000E-01 6.790106E-01
7.500000E-01 1.000000E+00 6.939365E-01
6.875000E-01 1.000000E+00 5.440843E-01
6.625000E-01 9.125000E-01 4.598874E-01
7.062500E-01 9.187500E-01 5.719097E-01
7.125000E-01 9.625000E-01 6.013392E-01
6.687500E-01 9.562500E-01 4.904855E-01
5.625000E-01 7.500000E-01 1.347164E-01
6.250000E-01 7.500000E-01 2.658442E-01
6.250000E-01 8.125000E-01 3.113059E-01
5.375000E-01 7.875000E-01 9.008195E-02
5.812500E-01 7.937500E-01 1.975679E-01
5.875000E-01 8.375000E-01 2.315480E-01
5.437500E-01 8.312500E-01 1.161271E-01
6.875000E-01 7.500000E-01 3.843203E-01
7.500000E-01 7.500000E-01 4.908328E-01
7.500000E-01 8.125000E-01 5.754431E-01
6.625000E-01 7.875000E-01 3.750530E-01
7.062500E-01 7.937500E-01 4.714322E-01
7.125000E-01 8.375000E-01 5.281601E-01
6.687500E-01 8.312500E-01 4.273616E-01
8.125000E-01 8.750000E-01 7.519973E-01
8.750000E-01 8.750000E-01 8.374969E-01
8.750000E-01 9.375000E-01 8.870799E-01
8.750000E-01 1.000000E+00 9.064308E-01
8.125000E-01 1.000000E+00 8.140952E-01
7.875000E-01 9.125000E-01 7.390826E-01
8.312500E-01 9.187500E-01 8.172162E-01
8.375000E-01 9.625000E-01 8.473048E-01
7.937500E-01 9.562500E-01 7.731666E-01
9.375000E-01 8.750000E-01 8.870799E-01
1.000000E+00 8.750000E-01 9.064308E-01
1.000000E+00 9.375000E-01 9.600715E-01
1.000000E+00 1.000000E+00 9.805506E-01
9.375000E-01 1.000000E+00 9.600715E-01
9.125000E-01 9.125000E-01 9.057405E-01
9.562500E-01 9.187500E-01 9.380836E-01
9.625000E-01 9.625000E-01 9.641645E-01
9.187500E-01 9.562500E-01 9.380836E-01
8.125000E-01 7.500000E-01 5.754431E-01
8.750000E-01 7.500000E-01 6.411325E-01
8.750000E-01 8.125000E-01 7.519973E-01
7.875000E-01 7.875000E-01 6.029465E-01
8.312500E-01 7.937500E-01 6.735477E-01
8.375000E-01 8.375000E-01 7.443777E-01
7.937500E-01 8.312500E-01 6.735477E-01
9.375000E-01 7.500000E-01 6.790106E-01
1.000000E+00 7.500000E-01 6.939365E-01
1.000000E+00 8.125000E-01 8.140952E-01
9.125000E-01 7.875000E-01 7.390826E-01
9.562500E-01 7.937500E-01 7.731666E-01
9.625000E-01 8.375000E-01 8.473048E-01
9.187500E-01 8.312500E-01 8.172162E-01
5.625000E-01 6.250000E-01 7.258163E-02
6.250000E-01 6.250000E-01 1.441016E-01
6.250000E-01 6.875000E-01 2.077363E-01
5.375000E-01 6.625000E-01 5.582921E-02
5.812500E-01 6.687500E-01 1.255880E-01
5.875000E-01 7.125000E-01 1.640997E-01
5.437500E-01 7.062500E-01 8.150980E-02
6.875000E-01 6.250000E-01 2.077363E-01
7.500000E-01 6.250000E-01 2.658442E-01
7.500000E-01 6.875000E-01 3.843203E-01
6.625000E-01 6.625000E-01 2.331723E-01
7.062500E-01 6.687500E-01 2.992326E-01
7.125000E-01 7.125000E-01 3.746288E-01
6.687500E-01 7.062500E-01 2.992326E-01
5.625000E-01 5.000000E-01 -5.645193E-04
6.250000E-01 5.000000E-01 4.563780E-04
6.250000E-01 5.625000E-01 7.258163E-02
5.375000E-01 5.375000E-01 1.311894E-02
5.812500E-01 5.437500E-01 3.452972E-02
5.875000E-01 5.875000E-01 7.171436E-02
5.437500E-01 5.812500E-01 3.452972E-02
6.875000E-01 5.000000E-01 -4.425829E-04
7.500000E-01 5.000000E-01 4.075372E-04
7.500000E-01 5.625000E-01 1.347164E-01
6.625000E-01 5.375000E-01 5.582921E-02
7.062500E-01 5.437500E-01 8.150980E-02
7.125000E-01 5.875000E-01 1.640997E-01
6.687500E-01 5.812500E-01 1.255880E-01
8.125000E-01 6.250000E-01 3.113059E-01
8.750000E-01 6.250000E-01 3.471635E-01
8.750000E-01 6.875000E-01 5.024389E-01
7.875000E-01 6.625000E-01 3.750530E-01
8.312500E-01 6.687500E-01 4.273616E-01
8.375000E-01 7.125000E-01 5.281601E-01
7.937500E-01 7.062500E-01 4.714322E-01
9.375000E-01 6.250000E-01 3.675442E-01
1.000000E+00 6.250000E-01 3.757589E-01
1.000000E+00 6.875000E-01 5.440843E-01
9.125000E-01 6.625000E-01 4.598874E-01
9.562500E-01 6.687500E-01 4.904855E-01
9.625000E-01 7.125000E-01 6.013392E-01
9.187500E-01 7.062500E-01 5.719097E-01
8.125000E-01 5.000000E-01 -2.086029E-04
8.750000E-01 5.000000E-01 3.491508E-04
8.750000E-01 5.625000E-01 1.763932E-01
7.875000E-01 5.375000E-01 9.008195E-02
8.312500E-01 5.437500E-01 1.161271E-01
8.375000E-01 5.875000E-01 2.315480E-01
7.937500E-01 5.812500E-01 1.975679E-01
9.375000E-01 5.000000E-01 1.223786E-04
1.000000E+00 5.000000E-01 3.725361E-04
1.000000E+00 5.625000E-01 1.912283E-01
9.125000E-01 5.375000E-01 1.106778E-01
9.562500E-01 5.437500E-01 1.331249E-01
9.625000E-01 5.875000E-01 2.638072E-01
9.187500E-01 5.812500E-01 2.395271E-01
0.000000E+00 3.750000E-01 3.757589E-01
6.250000E-02 3.750000E-01 3.675442E-01
[...]
CELL_DATA 896
SCALARS sol float 1
LOOKUP_TABLE default
-9.092625E-01
-9.125898E-01
-9.336579E-01
-8.765036E-01
-9.370516E-01
-8.801340E-01
-9.517197E-01
-8.521079E-01
-8.481076E-01
-9.370516E-01
-8.801340E-01
-8.484106E-01
-9.673525E-01
-8.041657E-01
-8.040263E-01
-9.517197E-01
-9.125898E-01
-8.484106E-01
-8.034078E-01
-9.673525E-01
-7.844801E-01
-7.565464E-01
-7.759422E-01
-9.336579E-01
-9.092625E-01
-8.034078E-01
-8.481076E-01
-7.724680E-01
-7.320007E-01
-7.115441E-01
-7.157996E-01
-8.765036E-01
-7.759422E-01
-7.724680E-01
-8.040263E-01
-7.167295E-01
-6.914043E-01
-6.523780E-01
-6.875267E-01
-8.521079E-01
-7.157996E-01
-7.167295E-01
-7.844801E-01
-6.733157E-01
-6.339930E-01
-6.073233E-01
-6.154234E-01
-6.287478E-01
-8.041657E-01
-6.914043E-01
-6.875267E-01
-6.733157E-01
-7.320007E-01
-6.224697E-01
-5.752200E-01
-5.342659E-01
-5.486366E-01
-5.751835E-01
-7.565464E-01
-6.339930E-01
-6.287478E-01
-6.224697E-01
-7.115441E-01
-5.625391E-01
-5.211738E-01
-5.507942E-01
-5.125338E-01
-4.643223E-01
-5.201407E-01
-5.752200E-01
-6.154234E-01
-5.751835E-01
-5.625391E-01
-6.523780E-01
-5.137743E-01
-4.424951E-01
-4.762152E-01
-4.400056E-01
-4.055386E-01
-4.596055E-01
-5.211738E-01
-5.507942E-01
-5.486366E-01
-5.201407E-01
-5.137743E-01
-6.073233E-01
-4.501598E-01
-3.974297E-01
-4.219624E-01
-4.400693E-01
-3.289595E-01
-4.181277E-01
-4.424951E-01
-4.762152E-01
-5.125338E-01
-4.596055E-01
-4.501598E-01
-5.342659E-01
-4.103512E-01
-3.230655E-01
-3.583513E-01
-3.742056E-01
-2.701012E-01
-2.890622E-01
-3.479915E-01
-3.974297E-01
-4.219624E-01
-4.400693E-01
-4.400056E-01
-4.181277E-01
-4.103512E-01
-4.643223E-01
-3.456211E-01
-2.594604E-01
-2.903192E-01
-3.236056E-01
-1.830408E-01
-2.097302E-01
-3.152934E-01
-3.230655E-01
-3.583513E-01
-3.742056E-01
-4.055386E-01
-3.479915E-01
-3.456211E-01
-3.005527E-01
-2.452598E-01
-1.870632E-01
-2.443446E-01
-2.617768E-01
-1.625670E-01
-1.014170E-01
-2.565245E-01
-2.594604E-01
-2.890622E-01
-2.903192E-01
-3.236056E-01
-3.289595E-01
-3.152934E-01
-3.005527E-01
-2.513775E-01
-1.631910E-01
-1.018218E-01
-1.759049E-01
-2.030097E-01
-8.102665E-02
-3.779684E-02
-2.073974E-01
-1.870632E-01
-2.452598E-01
-2.097302E-01
-2.443446E-01
-2.617768E-01
-2.701012E-01
-2.565245E-01
-2.513775E-01
-2.004607E-01
-1.398106E-01
-9.215026E-02
-4.294845E-02
-1.501053E-01
-1.830133E-01
4.453994E-02
-1.623689E-01
-1.018218E-01
-1.631910E-01
-1.625670E-01
-1.759049E-01
-2.030097E-01
-1.830408E-01
-2.073974E-01
-2.004607E-01
-1.605792E-01
-6.895579E-02
-3.338725E-02
3.704979E-02
-8.044116E-02
-1.184520E-01
1.082419E-01
8.130837E-02
-1.152420E-01
-4.294845E-02
-9.215026E-02
-1.398106E-01
-8.102665E-02
-1.501053E-01
-1.830133E-01
-1.014170E-01
-1.623689E-01
-1.605792E-01
-1.156004E-01
-3.538584E-02
3.875588E-02
9.580672E-02
-6.878414E-02
-9.570915E-02
1.960535E-01
1.611099E-01
-9.024016E-02
3.704979E-02
-3.338725E-02
-6.895579E-02
-3.779684E-02
-8.044116E-02
-1.184520E-01
-1.152420E-01
-1.156004E-01
-9.285623E-02
3.009363E-02
9.762314E-02
6.866681E-02
1.755327E-01
-2.380681E-02
-4.632467E-02
2.121531E-01
2.769315E-01
-4.676006E-02
9.580672E-02
8.130837E-02
3.875588E-02
-3.538584E-02
4.453994E-02
-6.878414E-02
-9.570915E-02
-9.024016E-02
-9.285623E-02
-5.563178E-02
7.506862E-02
1.746894E-01
1.345923E-01
2.543612E-01
2.715825E-02
-2.237741E-02
2.902928E-01
3.357034E-01
-3.489588E-02
1.755327E-01
9.762314E-02
1.611099E-01
6.866681E-02
3.009363E-02
1.082419E-01
-2.380681E-02
-4.632467E-02
-4.676006E-02
-5.563178E-02
-3.699188E-02
7.221123E-02
1.407887E-01
1.817477E-01
2.517016E-01
3.180782E-01
4.563214E-02
1.861433E-02
4.112628E-01
-1.055387E-02
2.543612E-01
1.746894E-01
2.121531E-01
1.345923E-01
7.506862E-02
1.960535E-01
2.715825E-02
-2.237741E-02
-3.489588E-02
-3.699188E-02
-1.659627E-02
1.267753E-01
1.993762E-01
2.468073E-01
2.966725E-01
3.915317E-01
8.764233E-02
4.295574E-02
4.701095E-01
4.393057E-01
1.147386E-02
3.180782E-01
2.517016E-01
1.817477E-01
2.902928E-01
1.407887E-01
7.221123E-02
2.769315E-01
4.563214E-02
1.861433E-02
-1.055387E-02
-1.659627E-02
-5.920098E-03
1.237325E-01
1.882201E-01
2.582394E-01
3.619437E-01
4.364966E-01
8.466627E-02
3.585591E-02
5.453030E-01
5.074275E-01
1.569472E-02
3.915317E-01
2.966725E-01
2.468073E-01
3.357034E-01
1.993762E-01
1.267753E-01
8.764233E-02
4.295574E-02
1.147386E-02
-5.920098E-03
4.343155E-03
1.658080E-01
2.125601E-01
3.174010E-01
4.256547E-01
3.712402E-01
5.114120E-01
1.140904E-01
5.960857E-02
5.545781E-01
6.131200E-01
2.739280E-02
4.364966E-01
4.393057E-01
3.619437E-01
2.582394E-01
4.112628E-01
1.882201E-01
1.237325E-01
8.466627E-02
3.585591E-02
1.569472E-02
4.343155E-03
4.343155E-03
1.591420E-01
2.576044E-01
3.417392E-01
4.859869E-01
4.246156E-01
5.718270E-01
9.613253E-02
4.692460E-02
6.174198E-01
6.580954E-01
1.569472E-02
5.114120E-01
4.256547E-01
5.074275E-01
3.712402E-01
3.174010E-01
4.701095E-01
2.125601E-01
1.658080E-01
1.140904E-01
5.960857E-02
2.739280E-02
4.343155E-03
-5.920098E-03
1.950034E-01
3.164657E-01
2.467138E-01
4.102685E-01
4.756513E-01
5.572438E-01
6.306843E-01
9.613253E-02
5.960857E-02
7.153712E-01
1.147386E-02
5.718270E-01
4.859869E-01
5.545781E-01
4.246156E-01
3.417392E-01
5.453030E-01
2.576044E-01
1.591420E-01
9.613253E-02
4.692460E-02
1.569472E-02
-5.920098E-03
-1.659627E-02
1.950034E-01
3.527272E-01
2.772125E-01
4.488617E-01
5.250118E-01
5.815786E-01
6.864085E-01
1.140904E-01
3.585591E-02
7.603994E-01
7.304199E-01
-1.055387E-02
6.306843E-01
5.572438E-01
4.756513E-01
6.174198E-01
4.102685E-01
3.164657E-01
6.131200E-01
2.467138E-01
1.950034E-01
9.613253E-02
5.960857E-02
1.147386E-02
-1.659627E-02
-3.699188E-02
1.591420E-01
2.467138E-01
3.243647E-01
4.165940E-01
5.125694E-01
6.300411E-01
7.107374E-01
8.466627E-02
4.295574E-02
8.115222E-01
7.764885E-01
-3.489588E-02
6.864085E-01
5.815786E-01
5.250118E-01
6.580954E-01
4.488617E-01
3.527272E-01
2.772125E-01
1.950034E-01
1.140904E-01
3.585591E-02
-1.055387E-02
-3.699188E-02
-5.563178E-02
1.658080E-01
2.576044E-01
3.527272E-01
4.165940E-01
5.564074E-01
6.888925E-01
6.173124E-01
7.694320E-01
8.764233E-02
1.861433E-02
8.125625E-01
8.559436E-01
-4.676006E-02
7.107374E-01
7.304199E-01
6.300411E-01
5.125694E-01
7.153712E-01
4.165940E-01
3.243647E-01
2.467138E-01
1.591420E-01
8.466627E-02
4.295574E-02
-3.489588E-02
-5.563178E-02
-9.285623E-02
1.237325E-01
2.125601E-01
3.164657E-01
4.488617E-01
5.564074E-01
7.233076E-01
6.500139E-01
8.022368E-01
4.563214E-02
-2.237741E-02
8.505336E-01
8.802718E-01
-9.024016E-02
7.694320E-01
6.888925E-01
7.764885E-01
6.173124E-01
5.564074E-01
7.603994E-01
4.165940E-01
3.527272E-01
2.576044E-01
1.658080E-01
8.764233E-02
1.861433E-02
-4.676006E-02
-9.285623E-02
-1.156004E-01
1.267753E-01
1.882201E-01
3.417392E-01
5.125694E-01
4.102685E-01
6.173124E-01
6.971577E-01
7.779573E-01
8.472643E-01
2.715825E-02
-4.632467E-02
9.105314E-01
-1.152420E-01
8.022368E-01
7.233076E-01
8.125625E-01
6.500139E-01
5.564074E-01
8.115222E-01
4.488617E-01
3.164657E-01
2.125601E-01
1.237325E-01
4.563214E-02
-2.237741E-02
-9.024016E-02
-1.156004E-01
-1.605792E-01
7.221123E-02
1.993762E-01
3.174010E-01
5.250118E-01
4.246156E-01
6.300411E-01
7.233076E-01
7.779573E-01
8.767724E-01
-2.380681E-02
-9.570915E-02
9.348620E-01
9.103013E-01
-1.623689E-01
8.472643E-01
7.779573E-01
6.971577E-01
8.505336E-01
6.173124E-01
5.125694E-01
8.559436E-01
4.102685E-01
3.417392E-01
1.882201E-01
1.267753E-01
2.715825E-02
-4.632467E-02
-1.152420E-01
-1.605792E-01
-2.004607E-01
7.506862E-02
2.582394E-01
1.407887E-01
3.712402E-01
4.756513E-01
5.815786E-01
6.888925E-01
8.022368E-01
8.767724E-01
-6.878414E-02
-1.184520E-01
9.541065E-01
9.273026E-01
-2.073974E-01
8.767724E-01
7.779573E-01
7.233076E-01
8.802718E-01
6.300411E-01
5.250118E-01
4.246156E-01
3.174010E-01
1.993762E-01
7.221123E-02
-2.380681E-02
-9.570915E-02
-1.623689E-01
-2.004607E-01
-2.513775E-01
3.009363E-02
2.468073E-01
1.345923E-01
3.619437E-01
4.859869E-01
5.572438E-01
7.107374E-01
8.472643E-01
7.694320E-01
9.103013E-01
-8.044116E-02
-1.830133E-01
9.467772E-01
9.682622E-01
-2.565245E-01
8.767724E-01
9.103013E-01
8.022368E-01
6.888925E-01
9.105314E-01
5.815786E-01
4.756513E-01
3.712402E-01
2.582394E-01
1.407887E-01
7.506862E-02
-6.878414E-02
-1.184520E-01
-2.073974E-01
-2.513775E-01
-3.005527E-01
6.866681E-02
-3.538584E-02
1.817477E-01
2.966725E-01
4.256547E-01
5.718270E-01
6.864085E-01
8.505336E-01
7.764885E-01
9.105314E-01
-1.501053E-01
-2.030097E-01
9.541065E-01
9.682622E-01
-3.152934E-01
9.103013E-01
8.472643E-01
9.273026E-01
7.694320E-01
7.107374E-01
9.348620E-01
5.572438E-01
4.859869E-01
3.619437E-01
2.468073E-01
1.345923E-01
3.009363E-02
-8.044116E-02
-1.830133E-01
-2.565245E-01
-3.005527E-01
-3.456211E-01
3.875588E-02
-6.895579E-02
1.746894E-01
2.517016E-01
4.364966E-01
6.306843E-01
5.114120E-01
7.304199E-01
8.125625E-01
8.802718E-01
9.348620E-01
-1.759049E-01
-2.617768E-01
-3.479915E-01
9.105314E-01
8.505336E-01
9.467772E-01
7.764885E-01
6.864085E-01
9.541065E-01
5.718270E-01
4.256547E-01
2.966725E-01
1.817477E-01
6.866681E-02
-3.538584E-02
-1.501053E-01
-2.030097E-01
-3.152934E-01
-3.456211E-01
-4.103512E-01
9.762314E-02
-3.338725E-02
-1.398106E-01
2.543612E-01
3.915317E-01
6.174198E-01
5.074275E-01
7.153712E-01
8.115222E-01
8.559436E-01
-2.443446E-01
-3.236056E-01
-4.181277E-01
9.348620E-01
8.802718E-01
8.125625E-01
9.541065E-01
7.304199E-01
6.306843E-01
9.682622E-01
5.114120E-01
4.364966E-01
2.517016E-01
1.746894E-01
3.875588E-02
-6.895579E-02
-1.759049E-01
-2.617768E-01
-3.479915E-01
-4.103512E-01
-4.501598E-01
9.580672E-02
-9.215026E-02
-1.631910E-01
3.180782E-01
1.755327E-01
4.393057E-01
5.545781E-01
6.580954E-01
7.603994E-01
-2.903192E-01
-3.742056E-01
-4.596055E-01
8.559436E-01
8.115222E-01
9.682622E-01
7.153712E-01
6.174198E-01
5.074275E-01
3.915317E-01
2.543612E-01
9.762314E-02
-3.338725E-02
-1.398106E-01
-2.443446E-01
-3.236056E-01
-4.181277E-01
-4.501598E-01
-5.137743E-01
3.704979E-02
-1.018218E-01
-2.452598E-01
2.902928E-01
1.611099E-01
4.112628E-01
5.453030E-01
6.131200E-01
-3.583513E-01
-4.400693E-01
-5.201407E-01
7.603994E-01
6.580954E-01
5.545781E-01
4.393057E-01
3.180782E-01
1.755327E-01
9.580672E-02
-9.215026E-02
-1.631910E-01
-2.903192E-01
-3.742056E-01
-4.596055E-01
-5.137743E-01
-5.625391E-01
8.130837E-02
-4.294845E-02
-1.870632E-01
-2.594604E-01
2.121531E-01
3.357034E-01
4.701095E-01
-4.219624E-01
-4.762152E-01
-5.751835E-01
6.131200E-01
5.453030E-01
4.112628E-01
2.902928E-01
1.611099E-01
3.704979E-02
-1.018218E-01
-2.452598E-01
-3.583513E-01
-4.400693E-01
-5.201407E-01
-5.625391E-01
-6.224697E-01
4.453994E-02
-8.102665E-02
-2.097302E-01
-3.230655E-01
1.960535E-01
2.769315E-01
-4.424951E-01
-5.507942E-01
-6.287478E-01
4.701095E-01
3.357034E-01
2.121531E-01
8.130837E-02
-4.294845E-02
-1.870632E-01
-2.594604E-01
-4.219624E-01
-4.762152E-01
-5.751835E-01
-6.224697E-01
-6.733157E-01
1.082419E-01
-3.779684E-02
-1.625670E-01
-2.890622E-01
-3.974297E-01
-5.211738E-01
-5.752200E-01
-6.875267E-01
2.769315E-01
1.960535E-01
4.453994E-02
-8.102665E-02
-2.097302E-01
-3.230655E-01
-4.424951E-01
-5.507942E-01
-6.287478E-01
-6.733157E-01
-7.167295E-01
-1.014170E-01
-1.830408E-01
-3.289595E-01
-4.400056E-01
-5.486366E-01
-6.339930E-01
-7.157996E-01
1.082419E-01
-3.779684E-02
-1.625670E-01
-2.890622E-01
-3.974297E-01
-5.211738E-01
-5.752200E-01
-6.875267E-01
-7.167295E-01
-7.724680E-01
-2.701012E-01
-4.055386E-01
-5.125338E-01
-6.154234E-01
-6.914043E-01
-7.759422E-01
-1.014170E-01
-1.830408E-01
-3.289595E-01
-4.400056E-01
-5.486366E-01
-6.339930E-01
-7.157996E-01
-7.724680E-01
-8.034078E-01
-4.643223E-01
-5.342659E-01
-6.523780E-01
-7.320007E-01
-8.040263E-01
-2.701012E-01
-4.055386E-01
-5.125338E-01
-6.154234E-01
-6.914043E-01
-7.759422E-01
-8.034078E-01
-8.484106E-01
-6.073233E-01
-7.115441E-01
-7.844801E-01
-8.481076E-01
-4.643223E-01
-5.342659E-01
-6.523780E-01
-7.320007E-01
-8.040263E-01
-8.484106E-01
-8.801340E-01
-7.565464E-01
-8.041657E-01
-8.765036E-01
-6.073233E-01
-7.115441E-01
-7.844801E-01
-8.481076E-01
-8.801340E-01
-9.125898E-01
-8.521079E-01
-9.092625E-01
-7.565464E-01
-8.041657E-01
-8.765036E-01
-9.125898E-01
-9.370516E-01
-9.336579E-01
-8.521079E-01
-9.092625E-01
-9.370516E-01
-9.517197E-01
-9.336579E-01
-9.517197E-01
-9.673525E-01
-9.673525E-01
