# vtk DataFile Version 2.0
Grille
ASCII
DATASET POLYDATA
POINTS 481 float
0.000000E+00 8.750000E-01 -8.432494E-01
6.250000E-02 8.750000E-01 -8.253802E-01
1.250000E-01 8.750000E-01 -7.789892E-01
1.250000E-01 9.375000E-01 -8.253802E-01
1.250000E-01 1.000000E+00 -8.432494E-01
6.250000E-02 1.000000E+00 -8.934923E-01
0.000000E+00 1.000000E+00 -9.132530E-01
0.000000E+00 9.375000E-01 -8.934923E-01
3.750000E-02 9.125000E-01 -8.696060E-01
8.125000E-02 9.187500E-01 -8.525390E-01
8.750000E-02 9.625000E-01 -8.696060E-01
4.375000E-02 9.562500E-01 -8.936777E-01
1.875000E-01 8.750000E-01 -6.997322E-01
2.500000E-01 8.750000E-01 -5.960490E-01
2.500000E-01 9.375000E-01 -6.316207E-01
2.500000E-01 1.000000E+00 -6.451904E-01
1.875000E-01 1.000000E+00 -7.572673E-01
1.625000E-01 9.125000E-01 -7.639672E-01
2.062500E-01 9.187500E-01 -7.023051E-01
2.125000E-01 9.625000E-01 -7.093944E-01
1.687500E-01 9.562500E-01 -7.781430E-01
0.000000E+00 7.500000E-01 -6.451904E-01
6.250000E-02 7.500000E-01 -6.316207E-01
1.250000E-01 7.500000E-01 -5.960490E-01
1.250000E-01 8.125000E-01 -6.997322E-01
0.000000E+00 8.125000E-01 -7.572673E-01
3.750000E-02 7.875000E-01 -7.093944E-01
8.125000E-02 7.937500E-01 -7.023051E-01
8.750000E-02 8.375000E-01 -7.639672E-01
4.375000E-02 8.312500E-01 -7.781430E-01
1.875000E-01 7.500000E-01 -5.356214E-01
2.500000E-01 7.500000E-01 -4.560407E-01
2.500000E-01 8.125000E-01 -5.356214E-01
1.625000E-01 7.875000E-01 -6.233671E-01
2.062500E-01 7.937500E-01 -5.785209E-01
2.125000E-01 8.375000E-01 -6.233671E-01
1.687500E-01 8.312500E-01 -6.775831E-01
3.125000E-01 8.750000E-01 -4.675264E-01
3.750000E-01 8.750000E-01 -3.223420E-01
3.750000E-01 9.375000E-01 -3.417037E-01
3.750000E-01 1.000000E+00 -3.489206E-01
3.125000E-01 1.000000E+00 -5.058278E-01
2.875000E-01 9.125000E-01 -5.420126E-01
3.312500E-01 9.187500E-01 -4.451519E-01
3.375000E-01 9.625000E-01 -4.412139E-01
2.937500E-01 9.562500E-01 -5.442025E-01
4.375000E-01 8.750000E-01 -1.641183E-01
5.000000E-01 8.750000E-01 4.671038E-04
5.000000E-01 9.375000E-01 2.559688E-04
5.000000E-01 1.000000E+00 4.883133E-04
4.375000E-01 1.000000E+00 -1.773715E-01
4.125000E-01 9.125000E-01 -2.375268E-01
4.562500E-01 9.187500E-01 -1.202090E-01
4.625000E-01 9.625000E-01 -1.058475E-01
4.187500E-01 9.562500E-01 -2.274047E-01
3.125000E-01 7.500000E-01 -3.580098E-01
3.750000E-01 7.500000E-01 -2.465493E-01
3.750000E-01 8.125000E-01 -2.899242E-01
2.875000E-01 7.875000E-01 -4.423695E-01
3.312500E-01 7.937500E-01 -3.666072E-01
3.375000E-01 8.375000E-01 -3.878245E-01
2.937500E-01 8.312500E-01 -4.738154E-01
4.375000E-01 7.500000E-01 -1.258466E-01
5.000000E-01 7.500000E-01 5.212696E-04
5.000000E-01 8.125000E-01 -5.206979E-05
4.125000E-01 7.875000E-01 -1.939810E-01
4.562500E-01 7.937500E-01 -9.884051E-02
4.625000E-01 8.375000E-01 -9.320599E-02
4.187500E-01 8.312500E-01 -1.978785E-01
0.000000E+00 6.250000E-01 -3.489206E-01
6.250000E-02 6.250000E-01 -3.417037E-01
1.250000E-01 6.250000E-01 -3.223420E-01
1.250000E-01 6.875000E-01 -4.675264E-01
0.000000E+00 6.875000E-01 -5.058278E-01
3.750000E-02 6.625000E-01 -4.412139E-01
8.125000E-02 6.687500E-01 -4.451519E-01
8.750000E-02 7.125000E-01 -5.420126E-01
4.375000E-02 7.062500E-01 -5.442025E-01
1.875000E-01 6.250000E-01 -2.899242E-01
2.500000E-01 6.250000E-01 -2.465493E-01
2.500000E-01 6.875000E-01 -3.580098E-01
1.625000E-01 6.625000E-01 -3.878245E-01
2.062500E-01 6.687500E-01 -3.666072E-01
2.125000E-01 7.125000E-01 -4.423695E-01
1.687500E-01 7.062500E-01 -4.738154E-01
0.000000E+00 5.000000E-01 4.883133E-04
6.250000E-02 5.000000E-01 2.559688E-04
1.250000E-01 5.000000E-01 4.671038E-04
1.250000E-01 5.625000E-01 -1.641183E-01
0.000000E+00 5.625000E-01 -1.773715E-01
3.750000E-02 5.375000E-01 -1.058475E-01
8.125000E-02 5.437500E-01 -1.202090E-01
8.750000E-02 5.875000E-01 -2.375268E-01
4.375000E-02 5.812500E-01 -2.274047E-01
1.875000E-01 5.000000E-01 -5.206979E-05
2.500000E-01 5.000000E-01 5.212696E-04
2.500000E-01 5.625000E-01 -1.258466E-01
1.625000E-01 5.375000E-01 -9.320599E-02
2.062500E-01 5.437500E-01 -9.884051E-02
2.125000E-01 5.875000E-01 -1.939810E-01
1.687500E-01 5.812500E-01 -1.978785E-01
3.125000E-01 6.250000E-01 -1.939270E-01
3.750000E-01 6.250000E-01 -1.331546E-01
3.750000E-01 6.875000E-01 -1.939270E-01
2.875000E-01 6.625000E-01 -2.753141E-01
3.312500E-01 6.687500E-01 -2.321792E-01
3.375000E-01 7.125000E-01 -2.753141E-01
2.937500E-01 7.062500E-01 -3.312238E-01
4.375000E-01 6.250000E-01 -6.834654E-02
5.000000E-01 6.250000E-01 5.664791E-04
5.000000E-01 6.875000E-01 -2.700894E-04
4.125000E-01 6.625000E-01 -1.208299E-01
4.562500E-01 6.687500E-01 -6.234889E-02
4.625000E-01 7.125000E-01 -6.629417E-02
4.187500E-01 7.062500E-01 -1.381513E-01
3.125000E-01 5.000000E-01 -2.700894E-04
3.750000E-01 5.000000E-01 5.664791E-04
3.750000E-01 5.625000E-01 -6.834654E-02
2.875000E-01 5.375000E-01 -6.629417E-02
3.312500E-01 5.437500E-01 -6.234889E-02
3.375000E-01 5.875000E-01 -1.208299E-01
2.937500E-01 5.812500E-01 -1.381513E-01
4.375000E-01 5.000000E-01 -3.837710E-04
5.000000E-01 5.000000E-01 5.837438E-04
5.000000E-01 5.625000E-01 -3.837710E-04
4.125000E-01 5.375000E-01 -2.922411E-02
4.562500E-01 5.437500E-01 -1.630405E-02
4.625000E-01 5.875000E-01 -2.922411E-02
4.187500E-01 5.812500E-01 -5.732813E-02
5.625000E-01 8.750000E-01 1.643054E-01
6.250000E-01 8.750000E-01 3.232357E-01
6.250000E-01 9.375000E-01 3.422032E-01
6.250000E-01 1.000000E+00 3.498480E-01
5.625000E-01 1.000000E+00 1.781119E-01
5.375000E-01 9.125000E-01 1.031464E-01
5.812500E-01 9.187500E-01 2.230618E-01
5.875000E-01 9.625000E-01 2.456585E-01
5.437500E-01 9.562500E-01 1.240372E-01
6.875000E-01 8.750000E-01 4.677453E-01
7.500000E-01 8.750000E-01 5.968230E-01
7.500000E-01 9.375000E-01 6.320746E-01
7.500000E-01 1.000000E+00 6.459655E-01
6.875000E-01 1.000000E+00 5.065032E-01
6.625000E-01 9.125000E-01 4.281442E-01
7.062500E-01 9.187500E-01 5.323994E-01
7.125000E-01 9.625000E-01 5.597883E-01
6.687500E-01 9.562500E-01 4.566207E-01
5.625000E-01 7.500000E-01 1.255180E-01
6.250000E-01 7.500000E-01 2.475545E-01
6.250000E-01 8.125000E-01 2.898642E-01
5.375000E-01 7.875000E-01 8.397842E-02
5.812500E-01 7.937500E-01 1.840118E-01
5.875000E-01 8.375000E-01 2.156361E-01
5.437500E-01 8.312500E-01 1.082179E-01
6.875000E-01 7.500000E-01 3.578161E-01
7.500000E-01 7.500000E-01 4.569440E-01
7.500000E-01 8.125000E-01 5.356879E-01
6.625000E-01 7.875000E-01 3.491915E-01
7.062500E-01 7.937500E-01 4.388883E-01
7.125000E-01 8.375000E-01 4.916831E-01
6.687500E-01 8.312500E-01 3.978735E-01
8.125000E-01 8.750000E-01 7.000010E-01
8.750000E-01 8.750000E-01 7.795727E-01
8.750000E-01 9.375000E-01 8.257177E-01
8.750000E-01 1.000000E+00 8.437269E-01
8.125000E-01 1.000000E+00 7.577933E-01
7.875000E-01 9.125000E-01 6.879817E-01
8.312500E-01 9.187500E-01 7.606980E-01
8.375000E-01 9.625000E-01 7.887003E-01
7.937500E-01 9.562500E-01 7.197025E-01
9.375000E-01 8.750000E-01 8.257177E-01
1.000000E+00 8.750000E-01 8.437269E-01
1.000000E+00 9.375000E-01 8.936484E-01
1.000000E+00 1.000000E+00 9.127078E-01
9.375000E-01 1.000000E+00 8.936484E-01
9.125000E-01 9.125000E-01 8.430846E-01
9.562500E-01 9.187500E-01 8.731851E-01
9.625000E-01 9.625000E-01 8.974576E-01
9.187500E-01 9.562500E-01 8.731851E-01
8.125000E-01 7.500000E-01 5.356879E-01
8.750000E-01 7.500000E-01 5.968230E-01
8.750000E-01 8.125000E-01 7.000010E-01
7.875000E-01 7.875000E-01 5.612845E-01
8.312500E-01 7.937500E-01 6.269906E-01
8.375000E-01 8.375000E-01 6.929096E-01
7.937500E-01 8.312500E-01 6.269906E-01
9.375000E-01 7.500000E-01 6.320746E-01
1.000000E+00 7.500000E-01 6.459655E-01
1.000000E+00 8.125000E-01 7.577933E-01
9.125000E-01 7.875000E-01 6.879817E-01
9.562500E-01 7.937500E-01 7.197025E-01
9.625000E-01 8.375000E-01 7.887003E-01
9.187500E-01 8.312500E-01 7.606980E-01
5.625000E-01 6.250000E-01 6.769102E-02
6.250000E-01 6.250000E-01 1.342524E-01
6.250000E-01 6.875000E-01 1.934752E-01
5.375000E-01 6.625000E-01 5.210025E-02
5.812500E-01 6.687500E-01 1.170223E-01
5.875000E-01 7.125000E-01 1.528639E-01
5.437500E-01 7.062500E-01 7.600043E-02
6.875000E-01 6.250000E-01 1.934752E-01
7.500000E-01 6.250000E-01 2.475545E-01
7.500000E-01 6.875000E-01 3.578161E-01
6.625000E-01 6.625000E-01 2.171478E-01
7.062500E-01 6.687500E-01 2.786279E-01
7.125000E-01 7.125000E-01 3.487965E-01
6.687500E-01 7.062500E-01 2.786279E-01
5.625000E-01 5.000000E-01 -3.837710E-04
6.250000E-01 5.000000E-01 5.664791E-04
6.250000E-01 5.625000E-01 6.769102E-02
5.375000E-01 5.375000E-01 1.235103E-02
5.812500E-01 5.437500E-01 3.227736E-02
5.875000E-01 5.875000E-01 6.688383E-02
5.437500E-01 5.812500E-01 3.227736E-02
6.875000E-01 5.000000E-01 -2.700894E-04
7.500000E-01 5.000000E-01 5.212696E-04
7.500000E-01 5.625000E-01 1.255180E-01
6.625000E-01 5.375000E-01 5.210025E-02
7.062500E-01 5.437500E-01 7.600043E-02
7.125000E-01 5.875000E-01 1.528639E-01
6.687500E-01 5.812500E-01 1.170223E-01
8.125000E-01 6.250000E-01 2.898642E-01
8.750000E-01 6.250000E-01 3.232357E-01
8.750000E-01 6.875000E-01 4.677453E-01
7.875000E-01 6.625000E-01 3.491915E-01
8.312500E-01 6.687500E-01 3.978735E-01
8.375000E-01 7.125000E-01 4.916831E-01
7.937500E-01 7.062500E-01 4.388883E-01
9.375000E-01 6.250000E-01 3.422032E-01
1.000000E+00 6.250000E-01 3.498480E-01
1.000000E+00 6.875000E-01 5.065032E-01
9.125000E-01 6.625000E-01 4.281442E-01
9.562500E-01 6.687500E-01 4.566207E-01
9.625000E-01 7.125000E-01 5.597883E-01
9.187500E-01 7.062500E-01 5.323994E-01
8.125000E-01 5.000000E-01 -5.206979E-05
8.750000E-01 5.000000E-01 4.671038E-04
8.750000E-01 5.625000E-01 1.643054E-01
7.875000E-01 5.375000E-01 8.397842E-02
8.312500E-01 5.437500E-01 1.082179E-01
8.375000E-01 5.875000E-01 2.156361E-01
7.937500E-01 5.812500E-01 1.840118E-01
9.375000E-01 5.000000E-01 2.559688E-04
1.000000E+00 5.000000E-01 4.883133E-04
1.000000E+00 5.625000E-01 1.781119E-01
9.125000E-01 5.375000E-01 1.031464E-01
9.562500E-01 5.437500E-01 1.240372E-01
9.625000E-01 5.875000E-01 2.456585E-01
9.187500E-01 5.812500E-01 2.230618E-01
0.000000E+00 3.750000E-01 3.498480E-01
6.250000E-02 3.750000E-01 3.422032E-01
[...]
CELL_DATA 896
SCALARS sol float 1
LOOKUP_TABLE default
-8.460785E-01
-8.491751E-01
-8.687826E-01
-8.155909E-01
-8.719409E-01
-8.189695E-01
-8.855920E-01
-7.928866E-01
-7.891635E-01
-8.719409E-01
-8.189695E-01
-7.894455E-01
-9.001410E-01
-7.482683E-01
-7.481384E-01
-8.855920E-01
-8.491751E-01
-7.894455E-01
-7.475629E-01
-9.001410E-01
-7.299475E-01
-7.039507E-01
-7.220015E-01
-8.687826E-01
-8.460785E-01
-7.475629E-01
-7.891635E-01
-7.187682E-01
-6.811067E-01
-6.620685E-01
-6.660288E-01
-8.155909E-01
-7.220015E-01
-7.187682E-01
-7.481384E-01
-6.668941E-01
-6.433250E-01
-6.070045E-01
-6.397161E-01
-7.928866E-01
-6.660288E-01
-6.668941E-01
-7.299475E-01
-6.264903E-01
-5.898941E-01
-5.650736E-01
-5.726119E-01
-5.850125E-01
-7.482683E-01
-6.433250E-01
-6.397161E-01
-6.264903E-01
-6.811067E-01
-5.791698E-01
-5.351960E-01
-4.970814E-01
-5.104557E-01
-5.351620E-01
-7.039507E-01
-5.898941E-01
-5.850125E-01
-5.791698E-01
-6.620685E-01
-5.233943E-01
-4.848970E-01
-5.124636E-01
-4.768561E-01
-4.319874E-01
-4.839355E-01
-5.351960E-01
-5.726119E-01
-5.351620E-01
-5.233943E-01
-6.070045E-01
-4.780106E-01
-4.116734E-01
-4.430554E-01
-4.093565E-01
-3.772794E-01
-4.275974E-01
-4.848970E-01
-5.124636E-01
-5.104557E-01
-4.839355E-01
-4.780106E-01
-5.650736E-01
-4.188067E-01
-3.697325E-01
-3.925643E-01
-4.094157E-01
-3.060097E-01
-3.889955E-01
-4.116734E-01
-4.430554E-01
-4.768561E-01
-4.275974E-01
-4.188067E-01
-4.970814E-01
-3.817581E-01
-3.005242E-01
-3.333636E-01
-3.481186E-01
-2.512322E-01
-2.688784E-01
-3.237221E-01
-3.697325E-01
-3.925643E-01
-4.094157E-01
-4.093565E-01
-3.889955E-01
-3.817581E-01
-4.319874E-01
-3.215159E-01
-2.413290E-01
-2.700482E-01
-3.010269E-01
-1.702079E-01
-1.950468E-01
-2.932911E-01
-3.005242E-01
-3.333636E-01
-3.481186E-01
-3.772794E-01
-3.237221E-01
-3.215159E-01
-2.795724E-01
-2.281129E-01
-1.739514E-01
-2.272612E-01
-2.434848E-01
-1.511537E-01
-9.424356E-02
-2.385968E-01
-2.413290E-01
-2.688784E-01
-2.700482E-01
-3.010269E-01
-3.060097E-01
-2.932911E-01
-2.795724E-01
-2.338068E-01
-1.517343E-01
-9.462007E-02
-1.635667E-01
-1.887923E-01
-7.526683E-02
-3.503440E-02
-1.928759E-01
-1.739514E-01
-2.281129E-01
-1.950468E-01
-2.272612E-01
-2.434848E-01
-2.512322E-01
-2.385968E-01
-2.338068E-01
-1.864203E-01
-1.299750E-01
-8.561907E-02
-3.982863E-02
-1.395561E-01
-1.701824E-01
4.159381E-02
-1.509694E-01
-9.462007E-02
-1.517343E-01
-1.511537E-01
-1.635667E-01
-1.887923E-01
-1.702079E-01
-1.928759E-01
-1.864203E-01
-1.493038E-01
-6.403286E-02
-3.093032E-02
3.462316E-02
-7.472196E-02
-1.100974E-01
1.008791E-01
7.581318E-02
-1.071100E-01
-3.982863E-02
-8.561907E-02
-1.299750E-01
-7.526683E-02
-1.395561E-01
-1.701824E-01
-9.424356E-02
-1.509694E-01
-1.493038E-01
-1.074437E-01
-3.279044E-02
3.621097E-02
8.930631E-02
-6.387318E-02
-8.893146E-02
1.826025E-01
1.500818E-01
-8.384176E-02
3.462316E-02
-3.093032E-02
-6.403286E-02
-3.503440E-02
-7.472196E-02
-1.100974E-01
-1.071100E-01
-1.074437E-01
-8.627643E-02
2.814921E-02
9.099679E-02
6.404808E-02
1.635046E-01
-2.201433E-02
-4.297105E-02
1.975858E-01
2.578728E-01
-4.337632E-02
8.930631E-02
7.581318E-02
3.621097E-02
-3.279044E-02
4.159381E-02
-6.387318E-02
-8.893146E-02
-8.384176E-02
-8.627643E-02
-5.163293E-02
7.000590E-02
1.627198E-01
1.254027E-01
2.368677E-01
2.541720E-02
-2.068417E-02
2.703079E-01
3.125699E-01
-3.233472E-02
1.635046E-01
9.099679E-02
1.500818E-01
6.404808E-02
2.814921E-02
1.008791E-01
-2.201433E-02
-4.297105E-02
-4.337632E-02
-5.163293E-02
-3.428543E-02
6.734657E-02
1.311694E-01
1.692886E-01
2.343924E-01
2.961669E-01
4.261020E-02
1.746555E-02
3.828906E-01
-9.680468E-03
2.368677E-01
1.627198E-01
1.975858E-01
1.254027E-01
7.000590E-02
1.826025E-01
2.541720E-02
-2.068417E-02
-3.233472E-02
-3.428543E-02
-1.530398E-02
1.181275E-01
1.856948E-01
2.298374E-01
2.762453E-01
3.645277E-01
8.170767E-02
4.011925E-02
4.376573E-01
4.089894E-01
1.082002E-02
2.961669E-01
2.343924E-01
1.692886E-01
2.703079E-01
1.311694E-01
6.734657E-02
2.578728E-01
4.261020E-02
1.746555E-02
-9.680468E-03
-1.530398E-02
-5.368025E-03
1.152956E-01
1.753121E-01
2.404768E-01
3.369911E-01
4.063751E-01
7.893787E-02
3.351162E-02
5.076374E-01
4.723881E-01
1.474821E-02
3.645277E-01
2.762453E-01
2.298374E-01
3.125699E-01
1.856948E-01
1.181275E-01
8.170767E-02
4.011925E-02
1.082002E-02
-5.368025E-03
4.183668E-03
1.544538E-01
1.979645E-01
2.955367E-01
3.962848E-01
3.456431E-01
4.760963E-01
1.063219E-01
5.561740E-02
5.162695E-01
5.707524E-01
2.563525E-02
4.063751E-01
4.089894E-01
3.369911E-01
2.404768E-01
3.828906E-01
1.753121E-01
1.152956E-01
7.893787E-02
3.351162E-02
1.474821E-02
4.183668E-03
4.183668E-03
1.482500E-01
2.398858E-01
3.181874E-01
4.524339E-01
3.953178E-01
5.323225E-01
8.960909E-02
4.381285E-02
5.747541E-01
6.126095E-01
1.474821E-02
4.760963E-01
3.962848E-01
4.723881E-01
3.456431E-01
2.955367E-01
4.376573E-01
1.979645E-01
1.544538E-01
1.063219E-01
5.561740E-02
2.563525E-02
4.183668E-03
-5.368025E-03
1.816251E-01
2.946662E-01
2.297503E-01
3.819653E-01
4.428150E-01
5.187504E-01
5.870990E-01
8.960909E-02
5.561740E-02
6.659142E-01
1.082002E-02
5.323225E-01
4.524339E-01
5.162695E-01
3.953178E-01
3.181874E-01
5.076374E-01
2.398858E-01
1.482500E-01
8.960909E-02
4.381285E-02
1.474821E-02
-5.368025E-03
-1.530398E-02
1.816251E-01
3.284135E-01
2.581345E-01
4.178828E-01
4.887531E-01
5.413980E-01
6.389598E-01
1.063219E-01
3.351162E-02
7.078204E-01
6.799196E-01
-9.680468E-03
5.870990E-01
5.187504E-01
4.428150E-01
5.747541E-01
3.819653E-01
2.946662E-01
5.707524E-01
2.297503E-01
1.816251E-01
8.960909E-02
5.561740E-02
1.082002E-02
-1.530398E-02
-3.428543E-02
1.482500E-01
2.297503E-01
3.020174E-01
3.878522E-01
4.771734E-01
5.865005E-01
6.616019E-01
7.893787E-02
4.011925E-02
7.553987E-01
7.227941E-01
-3.233472E-02
6.389598E-01
5.413980E-01
4.887531E-01
6.126095E-01
4.178828E-01
3.284135E-01
2.581345E-01
1.816251E-01
1.063219E-01
3.351162E-02
-9.680468E-03
-3.428543E-02
-5.163293E-02
1.544538E-01
2.398858E-01
3.284135E-01
3.878522E-01
5.179721E-01
6.412715E-01
5.746543E-01
7.162269E-01
8.170767E-02
1.746555E-02
7.563669E-01
7.967402E-01
-4.337632E-02
6.616019E-01
6.799196E-01
5.865005E-01
4.771734E-01
6.659142E-01
3.878522E-01
3.020174E-01
2.297503E-01
1.482500E-01
7.893787E-02
4.011925E-02
-3.233472E-02
-5.163293E-02
-8.627643E-02
1.152956E-01
1.979645E-01
2.946662E-01
4.178828E-01
5.179721E-01
6.733004E-01
6.050886E-01
7.467572E-01
4.261020E-02
-2.068417E-02
7.917053E-01
8.193816E-01
-8.384176E-02
7.162269E-01
6.412715E-01
7.227941E-01
5.746543E-01
5.179721E-01
7.078204E-01
3.878522E-01
3.284135E-01
2.398858E-01
1.544538E-01
8.170767E-02
1.746555E-02
-4.337632E-02
-8.627643E-02
-1.074437E-01
1.181275E-01
1.753121E-01
3.181874E-01
4.771734E-01
3.819653E-01
5.746543E-01
6.489636E-01
7.241611E-01
7.886628E-01
2.541720E-02
-4.297105E-02
8.475432E-01
-1.071100E-01
7.467572E-01
6.733004E-01
7.563669E-01
6.050886E-01
5.179721E-01
7.553987E-01
4.178828E-01
2.946662E-01
1.979645E-01
1.152956E-01
4.261020E-02
-2.068417E-02
-8.384176E-02
-1.074437E-01
-1.493038E-01
6.734657E-02
1.856948E-01
2.955367E-01
4.887531E-01
3.953178E-01
5.865005E-01
6.733004E-01
7.241611E-01
8.161250E-01
-2.201433E-02
-8.893146E-02
8.701868E-01
8.473291E-01
-1.509694E-01
7.886628E-01
7.241611E-01
6.489636E-01
7.917053E-01
5.746543E-01
4.771734E-01
7.967402E-01
3.819653E-01
3.181874E-01
1.753121E-01
1.181275E-01
2.541720E-02
-4.297105E-02
-1.071100E-01
-1.493038E-01
-1.864203E-01
7.000590E-02
2.404768E-01
1.311694E-01
3.456431E-01
4.428150E-01
5.413980E-01
6.412715E-01
7.467572E-01
8.161250E-01
-6.387318E-02
-1.100974E-01
8.880970E-01
8.631516E-01
-1.928759E-01
8.161250E-01
7.241611E-01
6.733004E-01
8.193816E-01
5.865005E-01
4.887531E-01
3.953178E-01
2.955367E-01
1.856948E-01
6.734657E-02
-2.201433E-02
-8.893146E-02
-1.509694E-01
-1.864203E-01
-2.338068E-01
2.814921E-02
2.298374E-01
1.254027E-01
3.369911E-01
4.524339E-01
5.187504E-01
6.616019E-01
7.886628E-01
7.162269E-01
8.473291E-01
-7.472196E-02
-1.701824E-01
8.812759E-01
9.012713E-01
-2.385968E-01
8.161250E-01
8.473291E-01
7.467572E-01
6.412715E-01
8.475432E-01
5.413980E-01
4.428150E-01
3.456431E-01
2.404768E-01
1.311694E-01
7.000590E-02
-6.387318E-02
-1.100974E-01
-1.928759E-01
-2.338068E-01
-2.795724E-01
6.404808E-02
-3.279044E-02
1.692886E-01
2.762453E-01
3.962848E-01
5.323225E-01
6.389598E-01
7.917053E-01
7.227941E-01
8.475432E-01
-1.395561E-01
-1.887923E-01
8.880970E-01
9.012713E-01
-2.932911E-01
8.473291E-01
7.886628E-01
8.631516E-01
7.162269E-01
6.616019E-01
8.701868E-01
5.187504E-01
4.524339E-01
3.369911E-01
2.298374E-01
1.254027E-01
2.814921E-02
-7.472196E-02
-1.701824E-01
-2.385968E-01
-2.795724E-01
-3.215159E-01
3.621097E-02
-6.403286E-02
1.627198E-01
2.343924E-01
4.063751E-01
5.870990E-01
4.760963E-01
6.799196E-01
7.563669E-01
8.193816E-01
8.701868E-01
-1.635667E-01
-2.434848E-01
-3.237221E-01
8.475432E-01
7.917053E-01
8.812759E-01
7.227941E-01
6.389598E-01
8.880970E-01
5.323225E-01
3.962848E-01
2.762453E-01
1.692886E-01
6.404808E-02
-3.279044E-02
-1.395561E-01
-1.887923E-01
-2.932911E-01
-3.215159E-01
-3.817581E-01
9.099679E-02
-3.093032E-02
-1.299750E-01
2.368677E-01
3.645277E-01
5.747541E-01
4.723881E-01
6.659142E-01
7.553987E-01
7.967402E-01
-2.272612E-01
-3.010269E-01
-3.889955E-01
8.701868E-01
8.193816E-01
7.563669E-01
8.880970E-01
6.799196E-01
5.870990E-01
9.012713E-01
4.760963E-01
4.063751E-01
2.343924E-01
1.627198E-01
3.621097E-02
-6.403286E-02
-1.635667E-01
-2.434848E-01
-3.237221E-01
-3.817581E-01
-4.188067E-01
8.930631E-02
-8.561907E-02
-1.517343E-01
2.961669E-01
1.635046E-01
4.089894E-01
5.162695E-01
6.126095E-01
7.078204E-01
-2.700482E-01
-3.481186E-01
-4.275974E-01
7.967402E-01
7.553987E-01
9.012713E-01
6.659142E-01
5.747541E-01
4.723881E-01
3.645277E-01
2.368677E-01
9.099679E-02
-3.093032E-02
-1.299750E-01
-2.272612E-01
-3.010269E-01
-3.889955E-01
-4.188067E-01
-4.780106E-01
3.462316E-02
-9.462007E-02
-2.281129E-01
2.703079E-01
1.500818E-01
3.828906E-01
5.076374E-01
5.707524E-01
-3.333636E-01
-4.094157E-01
-4.839355E-01
7.078204E-01
6.126095E-01
5.162695E-01
4.089894E-01
2.961669E-01
1.635046E-01
8.930631E-02
-8.561907E-02
-1.517343E-01
-2.700482E-01
-3.481186E-01
-4.275974E-01
-4.780106E-01
-5.233943E-01
7.581318E-02
-3.982863E-02
-1.739514E-01
-2.413290E-01
1.975858E-01
3.125699E-01
4.376573E-01
-3.925643E-01
-4.430554E-01
-5.351620E-01
5.707524E-01
5.076374E-01
3.828906E-01
2.703079E-01
1.500818E-01
3.462316E-02
-9.462007E-02
-2.281129E-01
-3.333636E-01
-4.094157E-01
-4.839355E-01
-5.233943E-01
-5.791698E-01
4.159381E-02
-7.526683E-02
-1.950468E-01
-3.005242E-01
1.826025E-01
2.578728E-01
-4.116734E-01
-5.124636E-01
-5.850125E-01
4.376573E-01
3.125699E-01
1.975858E-01
7.581318E-02
-3.982863E-02
-1.739514E-01
-2.413290E-01
-3.925643E-01
-4.430554E-01
-5.351620E-01
-5.791698E-01
-6.264903E-01
1.008791E-01
-3.503440E-02
-1.511537E-01
-2.688784E-01
-3.697325E-01
-4.848970E-01
-5.351960E-01
-6.397161E-01
2.578728E-01
1.826025E-01
4.159381E-02
-7.526683E-02
-1.950468E-01
-3.005242E-01
-4.116734E-01
-5.124636E-01
-5.850125E-01
-6.264903E-01
-6.668941E-01
-9.424356E-02
-1.702079E-01
-3.060097E-01
-4.093565E-01
-5.104557E-01
-5.898941E-01
-6.660288E-01
1.008791E-01
-3.503440E-02
-1.511537E-01
-2.688784E-01
-3.697325E-01
-4.848970E-01
-5.351960E-01
-6.397161E-01
-6.668941E-01
-7.187682E-01
-2.512322E-01
-3.772794E-01
-4.768561E-01
-5.726119E-01
-6.433250E-01
-7.220015E-01
-9.424356E-02
-1.702079E-01
-3.060097E-01
-4.093565E-01
-5.104557E-01
-5.898941E-01
-6.660288E-01
-7.187682E-01
-7.475629E-01
-4.319874E-01
-4.970814E-01
-6.070045E-01
-6.811067E-01
-7.481384E-01
-2.512322E-01
-3.772794E-01
-4.768561E-01
-5.726119E-01
-6.433250E-01
-7.220015E-01
-7.475629E-01
-7.894455E-01
-5.650736E-01
-6.620685E-01
-7.299475E-01
-7.891635E-01
-4.319874E-01
-4.970814E-01
-6.070045E-01
-6.811067E-01
-7.481384E-01
-7.894455E-01
-8.189695E-01
-7.039507E-01
-7.482683E-01
-8.155909E-01
-5.650736E-01
-6.620685E-01
-7.299475E-01
-7.891635E-01
-8.189695E-01
-8.491751E-01
-7.928866E-01
-8.460785E-01
-7.039507E-01
-7.482683E-01
-8.155909E-01
-8.491751E-01
-8.719409E-01
-8.687826E-01
-7.928866E-01
-8.460785E-01
-8.719409E-01
-8.855920E-01
-8.687826E-01
-8.855920E-01
-9.001410E-01
-9.001410E-01
