# vtk DataFile Version 2.0
Grille
ASCII
DATASET POLYDATA
POINTS 481 float
0.000000E+00 8.750000E-01 -9.252946E-01
6.250000E-02 8.750000E-01 -9.056962E-01
1.250000E-01 8.750000E-01 -8.548132E-01
1.250000E-01 9.375000E-01 -9.056962E-01
1.250000E-01 1.000000E+00 -9.252946E-01
6.250000E-02 1.000000E+00 -9.803974E-01
0.000000E+00 1.000000E+00 -1.002068E+00
0.000000E+00 9.375000E-01 -9.803974E-01
3.750000E-02 9.125000E-01 -9.542009E-01
8.125000E-02 9.187500E-01 -9.354827E-01
8.750000E-02 9.625000E-01 -9.542009E-01
4.375000E-02 9.562500E-01 -9.806007E-01
1.875000E-01 8.750000E-01 -7.678794E-01
2.500000E-01 8.750000E-01 -6.541498E-01
2.500000E-01 9.375000E-01 -6.931746E-01
2.500000E-01 1.000000E+00 -7.080610E-01
1.875000E-01 1.000000E+00 -8.309918E-01
1.625000E-01 9.125000E-01 -8.383376E-01
2.062500E-01 9.187500E-01 -7.707044E-01
2.125000E-01 9.625000E-01 -7.784826E-01
1.687500E-01 9.562500E-01 -8.538878E-01
0.000000E+00 7.500000E-01 -7.080610E-01
6.250000E-02 7.500000E-01 -6.931746E-01
1.250000E-01 7.500000E-01 -6.541498E-01
1.250000E-01 8.125000E-01 -7.678794E-01
0.000000E+00 8.125000E-01 -8.309918E-01
3.750000E-02 7.875000E-01 -7.784826E-01
8.125000E-02 7.937500E-01 -7.707044E-01
8.750000E-02 8.375000E-01 -8.383376E-01
4.375000E-02 8.312500E-01 -8.538878E-01
1.875000E-01 7.500000E-01 -5.878572E-01
2.500000E-01 7.500000E-01 -5.005537E-01
2.500000E-01 8.125000E-01 -5.878572E-01
1.625000E-01 7.875000E-01 -6.841117E-01
2.062500E-01 7.937500E-01 -6.349157E-01
2.125000E-01 8.375000E-01 -6.841117E-01
1.687500E-01 8.312500E-01 -7.435830E-01
3.125000E-01 8.750000E-01 -5.131698E-01
3.750000E-01 8.750000E-01 -3.539097E-01
3.750000E-01 9.375000E-01 -3.751596E-01
3.750000E-01 1.000000E+00 -3.830798E-01
3.125000E-01 1.000000E+00 -5.551962E-01
2.875000E-01 9.125000E-01 -5.948814E-01
3.312500E-01 9.187500E-01 -4.886334E-01
3.375000E-01 9.625000E-01 -4.843183E-01
2.937500E-01 9.562500E-01 -5.972882E-01
4.375000E-01 8.750000E-01 -1.803424E-01
5.000000E-01 8.750000E-01 2.060550E-04
5.000000E-01 9.375000E-01 -3.818070E-05
5.000000E-01 1.000000E+00 2.124410E-04
4.375000E-01 1.000000E+00 -1.948978E-01
4.125000E-01 9.125000E-01 -2.608779E-01
4.562500E-01 9.187500E-01 -1.321838E-01
4.625000E-01 9.625000E-01 -1.164353E-01
4.187500E-01 9.562500E-01 -2.497808E-01
3.125000E-01 7.500000E-01 -3.930109E-01
3.750000E-01 7.500000E-01 -2.707367E-01
3.750000E-01 8.125000E-01 -3.183333E-01
2.875000E-01 7.875000E-01 -4.855591E-01
3.312500E-01 7.937500E-01 -4.024493E-01
3.375000E-01 8.375000E-01 -4.257331E-01
2.937500E-01 8.312500E-01 -5.200614E-01
4.375000E-01 7.500000E-01 -1.383246E-01
5.000000E-01 7.500000E-01 3.013924E-04
5.000000E-01 8.125000E-01 -3.457600E-04
4.125000E-01 7.875000E-01 -2.130783E-01
4.562500E-01 7.937500E-01 -1.087108E-01
4.625000E-01 8.375000E-01 -1.025424E-01
4.187500E-01 8.312500E-01 -2.173659E-01
0.000000E+00 6.250000E-01 -3.830798E-01
6.250000E-02 6.250000E-01 -3.751596E-01
1.250000E-01 6.250000E-01 -3.539097E-01
1.250000E-01 6.875000E-01 -5.131698E-01
0.000000E+00 6.875000E-01 -5.551962E-01
3.750000E-02 6.625000E-01 -4.843183E-01
8.125000E-02 6.687500E-01 -4.886334E-01
8.750000E-02 7.125000E-01 -5.948814E-01
4.375000E-02 7.062500E-01 -5.972882E-01
1.875000E-01 6.250000E-01 -3.183333E-01
2.500000E-01 6.250000E-01 -2.707367E-01
2.500000E-01 6.875000E-01 -3.930109E-01
1.625000E-01 6.625000E-01 -4.257331E-01
2.062500E-01 6.687500E-01 -4.024493E-01
2.125000E-01 7.125000E-01 -4.855591E-01
1.687500E-01 7.062500E-01 -5.200614E-01
0.000000E+00 5.000000E-01 2.124410E-04
6.250000E-02 5.000000E-01 -3.818070E-05
1.250000E-01 5.000000E-01 2.060550E-04
1.250000E-01 5.625000E-01 -1.803424E-01
0.000000E+00 5.625000E-01 -1.948978E-01
3.750000E-02 5.375000E-01 -1.164353E-01
8.125000E-02 5.437500E-01 -1.321838E-01
8.750000E-02 5.875000E-01 -2.608779E-01
4.375000E-02 5.812500E-01 -2.497808E-01
1.875000E-01 5.000000E-01 -3.457600E-04
2.500000E-01 5.000000E-01 3.013924E-04
2.500000E-01 5.625000E-01 -1.383246E-01
1.625000E-01 5.375000E-01 -1.025424E-01
2.062500E-01 5.437500E-01 -1.087108E-01
2.125000E-01 5.875000E-01 -2.130783E-01
1.687500E-01 5.812500E-01 -2.173659E-01
3.125000E-01 6.250000E-01 -2.129974E-01
3.750000E-01 6.250000E-01 -1.463205E-01
3.750000E-01 6.875000E-01 -2.129974E-01
2.875000E-01 6.625000E-01 -3.022865E-01
3.312500E-01 6.687500E-01 -2.549616E-01
3.375000E-01 7.125000E-01 -3.022865E-01
2.937500E-01 7.062500E-01 -3.636231E-01
4.375000E-01 6.250000E-01 -7.522026E-02
5.000000E-01 6.250000E-01 3.794070E-04
5.000000E-01 6.875000E-01 -5.506346E-04
4.125000E-01 6.625000E-01 -1.328026E-01
4.562500E-01 6.687500E-01 -6.864761E-02
4.625000E-01 7.125000E-01 -7.298548E-02
4.187500E-01 7.062500E-01 -1.518130E-01
3.125000E-01 5.000000E-01 -5.506346E-04
3.750000E-01 5.000000E-01 3.794070E-04
3.750000E-01 5.625000E-01 -7.522026E-02
2.875000E-01 5.375000E-01 -7.298548E-02
3.312500E-01 5.437500E-01 -6.864761E-02
3.375000E-01 5.875000E-01 -1.328026E-01
2.937500E-01 5.812500E-01 -1.518130E-01
4.375000E-01 5.000000E-01 -6.555907E-04
5.000000E-01 5.000000E-01 4.084753E-04
5.000000E-01 5.625000E-01 -6.555907E-04
4.125000E-01 5.375000E-01 -3.229687E-02
4.562500E-01 5.437500E-01 -1.812006E-02
4.625000E-01 5.875000E-01 -3.229687E-02
4.187500E-01 5.812500E-01 -6.312945E-02
5.625000E-01 8.750000E-01 1.799383E-01
6.250000E-01 8.750000E-01 3.542888E-01
6.250000E-01 9.375000E-01 3.750861E-01
6.250000E-01 1.000000E+00 3.834690E-01
5.625000E-01 1.000000E+00 1.950674E-01
5.375000E-01 9.125000E-01 1.128376E-01
5.812500E-01 9.187500E-01 2.443866E-01
5.875000E-01 9.625000E-01 2.691702E-01
5.437500E-01 9.562500E-01 1.357483E-01
6.875000E-01 8.750000E-01 5.128229E-01
7.500000E-01 8.750000E-01 6.544302E-01
7.500000E-01 9.375000E-01 6.930989E-01
7.500000E-01 1.000000E+00 7.083364E-01
6.875000E-01 1.000000E+00 5.553308E-01
6.625000E-01 9.125000E-01 4.693718E-01
7.062500E-01 9.187500E-01 5.837469E-01
7.125000E-01 9.625000E-01 6.137913E-01
6.687500E-01 9.562500E-01 5.006071E-01
5.625000E-01 7.500000E-01 1.374223E-01
6.250000E-01 7.500000E-01 2.712950E-01
6.250000E-01 8.125000E-01 3.176944E-01
5.375000E-01 7.875000E-01 9.184289E-02
5.812500E-01 7.937500E-01 2.015785E-01
5.875000E-01 8.375000E-01 2.362588E-01
5.437500E-01 8.312500E-01 1.184210E-01
6.875000E-01 7.500000E-01 3.922499E-01
7.500000E-01 7.500000E-01 5.009901E-01
7.500000E-01 8.125000E-01 5.873687E-01
6.625000E-01 7.875000E-01 3.827825E-01
7.062500E-01 7.937500E-01 4.811800E-01
7.125000E-01 8.375000E-01 5.390906E-01
6.687500E-01 8.312500E-01 4.361788E-01
8.125000E-01 8.750000E-01 7.676274E-01
8.750000E-01 8.750000E-01 8.549283E-01
8.750000E-01 9.375000E-01 9.055577E-01
8.750000E-01 1.000000E+00 9.253173E-01
8.125000E-01 1.000000E+00 8.310294E-01
7.875000E-01 9.125000E-01 7.544381E-01
8.312500E-01 9.187500E-01 8.342189E-01
8.375000E-01 9.625000E-01 8.649413E-01
7.937500E-01 9.562500E-01 7.892379E-01
9.375000E-01 8.750000E-01 9.055577E-01
1.000000E+00 8.750000E-01 9.253173E-01
1.000000E+00 9.375000E-01 9.800954E-01
1.000000E+00 1.000000E+00 1.001009E+00
9.375000E-01 1.000000E+00 9.800954E-01
9.125000E-01 9.125000E-01 9.246134E-01
9.562500E-01 9.187500E-01 9.576413E-01
9.625000E-01 9.625000E-01 9.842754E-01
9.187500E-01 9.562500E-01 9.576413E-01
8.125000E-01 7.500000E-01 5.873687E-01
8.750000E-01 7.500000E-01 6.544302E-01
8.750000E-01 8.125000E-01 7.676274E-01
7.875000E-01 7.875000E-01 6.154499E-01
8.312500E-01 7.937500E-01 6.875310E-01
8.375000E-01 8.375000E-01 7.598490E-01
7.937500E-01 8.312500E-01 6.875310E-01
9.375000E-01 7.500000E-01 6.930989E-01
1.000000E+00 7.500000E-01 7.083364E-01
1.000000E+00 8.125000E-01 8.310294E-01
9.125000E-01 7.875000E-01 7.544381E-01
9.562500E-01 7.937500E-01 7.892379E-01
9.625000E-01 8.375000E-01 8.649413E-01
9.187500E-01 8.312500E-01 8.342189E-01
5.625000E-01 6.250000E-01 7.401290E-02
6.250000E-01 6.250000E-01 1.470250E-01
6.250000E-01 6.875000E-01 2.119827E-01
5.375000E-01 6.625000E-01 5.690414E-02
5.812500E-01 6.687500E-01 1.281207E-01
5.875000E-01 7.125000E-01 1.674294E-01
5.437500E-01 7.062500E-01 8.311289E-02
6.875000E-01 6.250000E-01 2.119827E-01
7.500000E-01 6.250000E-01 2.712950E-01
7.500000E-01 6.875000E-01 3.922499E-01
6.625000E-01 6.625000E-01 2.379511E-01
7.062500E-01 6.687500E-01 3.053883E-01
7.125000E-01 7.125000E-01 3.823584E-01
6.687500E-01 7.062500E-01 3.053883E-01
5.625000E-01 5.000000E-01 -6.555907E-04
6.250000E-01 5.000000E-01 3.794070E-04
6.250000E-01 5.625000E-01 7.401290E-02
5.375000E-01 5.375000E-01 1.331494E-02
5.812500E-01 5.437500E-01 3.517066E-02
5.875000E-01 5.875000E-01 7.312999E-02
5.437500E-01 5.812500E-01 3.517066E-02
6.875000E-01 5.000000E-01 -5.506346E-04
7.500000E-01 5.000000E-01 3.013924E-04
7.500000E-01 5.625000E-01 1.374223E-01
6.625000E-01 5.375000E-01 5.690414E-02
7.062500E-01 5.437500E-01 8.311289E-02
7.125000E-01 5.875000E-01 1.674294E-01
6.687500E-01 5.812500E-01 1.281207E-01
8.125000E-01 6.250000E-01 3.176944E-01
8.750000E-01 6.250000E-01 3.542888E-01
8.750000E-01 6.875000E-01 5.128229E-01
7.875000E-01 6.625000E-01 3.827825E-01
8.312500E-01 6.687500E-01 4.361788E-01
8.375000E-01 7.125000E-01 5.390906E-01
7.937500E-01 7.062500E-01 4.811800E-01
9.375000E-01 6.250000E-01 3.750861E-01
1.000000E+00 6.250000E-01 3.834690E-01
1.000000E+00 6.875000E-01 5.553308E-01
9.125000E-01 6.625000E-01 4.693718E-01
9.562500E-01 6.687500E-01 5.006071E-01
9.625000E-01 7.125000E-01 6.137913E-01
9.187500E-01 7.062500E-01 5.837469E-01
8.125000E-01 5.000000E-01 -3.457600E-04
8.750000E-01 5.000000E-01 2.060550E-04
8.750000E-01 5.625000E-01 1.799383E-01
7.875000E-01 5.375000E-01 9.184289E-02
8.312500E-01 5.437500E-01 1.184210E-01
8.375000E-01 5.875000E-01 2.362588E-01
7.937500E-01 5.812500E-01 2.015785E-01
9.375000E-01 5.000000E-01 -3.818070E-05
1.000000E+00 5.000000E-01 2.124410E-04
1.000000E+00 5.625000E-01 1.950674E-01
9.125000E-01 5.375000E-01 1.128376E-01
9.562500E-01 5.437500E-01 1.357483E-01
9.625000E-01 5.875000E-01 2.691702E-01
9.187500E-01 5.812500E-01 2.443866E-01
0.000000E+00 3.750000E-01 3.834690E-01
6.250000E-02 3.750000E-01 3.750861E-01
[...]
CELL_DATA 896
SCALARS sol float 1
LOOKUP_TABLE default
-9.283972E-01
-9.317932E-01
-9.532976E-01
-8.949595E-01
-9.567614E-01
-8.986640E-01
-9.717330E-01
-8.700581E-01
-8.659739E-01
-9.567614E-01
-8.986640E-01
-8.662823E-01
-9.876886E-01
-8.211207E-01
-8.209766E-01
-9.717330E-01
-9.317932E-01
-8.662823E-01
-8.203434E-01
-9.876886E-01
-8.010249E-01
-7.725118E-01
-7.923071E-01
-9.532976E-01
-9.283972E-01
-8.203434E-01
-8.659739E-01
-7.887585E-01
-7.474539E-01
-7.265727E-01
-7.309112E-01
-8.949595E-01
-7.923071E-01
-7.887585E-01
-8.209766E-01
-7.318580E-01
-7.060096E-01
-6.661746E-01
-7.020470E-01
-8.700581E-01
-7.309112E-01
-7.318580E-01
-8.010249E-01
-6.875368E-01
-6.474019E-01
-6.201818E-01
-6.284480E-01
-6.420396E-01
-8.211207E-01
-7.060096E-01
-7.020470E-01
-6.875368E-01
-7.474539E-01
-6.356282E-01
-5.874003E-01
-5.456009E-01
-5.602676E-01
-5.873561E-01
-7.725118E-01
-6.474019E-01
-6.420396E-01
-6.356282E-01
-7.265727E-01
-5.744422E-01
-5.322282E-01
-5.624604E-01
-5.234133E-01
-4.741981E-01
-5.311592E-01
-5.874003E-01
-6.284480E-01
-5.873561E-01
-5.744422E-01
-6.661746E-01
-5.246567E-01
-4.519043E-01
-4.863215E-01
-4.493704E-01
-4.141859E-01
-4.693566E-01
-5.322282E-01
-5.624604E-01
-5.602676E-01
-5.311592E-01
-5.246567E-01
-6.201818E-01
-4.597079E-01
-4.059009E-01
-4.309375E-01
-4.494146E-01
-3.360067E-01
-4.270064E-01
-4.519043E-01
-4.863215E-01
-5.234133E-01
-4.693566E-01
-4.597079E-01
-5.456009E-01
-4.190626E-01
-3.299824E-01
-3.659920E-01
-3.821719E-01
-2.759195E-01
-2.952728E-01
-3.553990E-01
-4.059009E-01
-4.309375E-01
-4.494146E-01
-4.493704E-01
-4.270064E-01
-4.190626E-01
-4.741981E-01
-3.529735E-01
-2.650433E-01
-2.965363E-01
-3.305064E-01
-1.870380E-01
-2.142808E-01
-3.220114E-01
-3.299824E-01
-3.659920E-01
-3.821719E-01
-4.141859E-01
-3.553990E-01
-3.529735E-01
-3.069571E-01
-2.505393E-01
-1.911347E-01
-2.495925E-01
-2.673827E-01
-1.661333E-01
-1.037069E-01
-2.620069E-01
-2.650433E-01
-2.952728E-01
-2.965363E-01
-3.305064E-01
-3.360067E-01
-3.220114E-01
-3.069571E-01
-2.567485E-01
-1.667502E-01
-1.041067E-01
-1.797183E-01
-2.073798E-01
-8.288576E-02
-3.875369E-02
-2.118490E-01
-1.911347E-01
-2.505393E-01
-2.142808E-01
-2.495925E-01
-2.673827E-01
-2.759195E-01
-2.620069E-01
-2.567485E-01
-2.047598E-01
-1.428730E-01
-9.422624E-02
-4.400530E-02
-1.533712E-01
-1.869581E-01
4.530751E-02
-1.658710E-01
-1.041067E-01
-1.667502E-01
-1.661333E-01
-1.797183E-01
-2.073798E-01
-1.870380E-01
-2.118490E-01
-2.047598E-01
-1.640402E-01
-7.053297E-02
-3.422736E-02
3.766849E-02
-8.224467E-02
-1.210410E-01
1.103427E-01
8.284923E-02
-1.177544E-01
-4.400530E-02
-9.422624E-02
-1.428730E-01
-8.288576E-02
-1.533712E-01
-1.869581E-01
-1.037069E-01
-1.658710E-01
-1.640402E-01
-1.181145E-01
-3.625172E-02
3.942710E-02
9.766066E-02
-7.033623E-02
-9.781536E-02
1.999953E-01
1.643241E-01
-9.222350E-02
3.766849E-02
-3.422736E-02
-7.053297E-02
-3.875369E-02
-8.224467E-02
-1.210410E-01
-1.177544E-01
-1.181145E-01
-9.489007E-02
3.059951E-02
9.952180E-02
6.997271E-02
1.790542E-01
-2.441157E-02
-4.739457E-02
2.164350E-01
2.825689E-01
-4.782949E-02
9.766066E-02
8.284923E-02
3.942710E-02
-3.625172E-02
4.530751E-02
-7.033623E-02
-9.781536E-02
-9.222350E-02
-9.489007E-02
-5.688220E-02
7.652220E-02
1.782060E-01
1.372808E-01
2.595379E-01
2.762122E-02
-2.293961E-02
2.962143E-01
3.425751E-01
-3.571258E-02
1.790542E-01
9.952180E-02
1.643241E-01
6.997271E-02
3.059951E-02
1.103427E-01
-2.441157E-02
-4.739457E-02
-4.782949E-02
-5.688220E-02
-3.784880E-02
7.361220E-02
1.436146E-01
1.854194E-01
2.568286E-01
3.245872E-01
4.648880E-02
1.891097E-02
4.197208E-01
-1.085768E-02
2.595379E-01
1.782060E-01
2.164350E-01
1.372808E-01
7.652220E-02
1.999953E-01
2.762122E-02
-2.293961E-02
-3.571258E-02
-3.784880E-02
-1.702417E-02
1.293215E-01
2.034319E-01
2.518439E-01
3.027473E-01
3.995822E-01
8.937925E-02
4.376548E-02
4.798023E-01
4.483550E-01
1.163149E-02
3.245872E-01
2.568286E-01
1.854194E-01
2.962143E-01
1.436146E-01
7.361220E-02
2.825689E-01
4.648880E-02
1.891097E-02
-1.085768E-02
-1.702417E-02
-6.122393E-03
1.262210E-01
1.920489E-01
2.635226E-01
3.693873E-01
4.454945E-01
8.634592E-02
3.652099E-02
5.565764E-01
5.179086E-01
1.594334E-02
3.995822E-01
3.027473E-01
2.518439E-01
3.425751E-01
2.034319E-01
1.293215E-01
8.937925E-02
4.376548E-02
1.163149E-02
-6.122393E-03
4.355942E-03
1.691776E-01
2.169024E-01
3.239240E-01
4.344302E-01
3.788852E-01
5.219805E-01
1.163862E-01
6.077118E-02
5.660485E-01
6.258195E-01
2.788542E-02
4.454945E-01
4.483550E-01
3.693873E-01
2.635226E-01
4.197208E-01
1.920489E-01
1.262210E-01
8.634592E-02
3.652099E-02
1.594334E-02
4.355942E-03
4.355942E-03
1.623761E-01
2.628887E-01
3.487758E-01
4.960308E-01
4.333804E-01
5.836667E-01
9.805595E-02
4.782377E-02
6.302124E-01
6.717422E-01
1.594334E-02
5.219805E-01
4.344302E-01
5.179086E-01
3.788852E-01
3.239240E-01
4.798023E-01
2.169024E-01
1.691776E-01
1.163862E-01
6.077118E-02
2.788542E-02
4.355942E-03
-6.122393E-03
1.989863E-01
3.229777E-01
2.517740E-01
4.187375E-01
4.854831E-01
5.687813E-01
6.437587E-01
9.805595E-02
6.077118E-02
7.302244E-01
1.163149E-02
5.836667E-01
4.960308E-01
5.660485E-01
4.333804E-01
3.487758E-01
5.565764E-01
2.628887E-01
1.623761E-01
9.805595E-02
4.782377E-02
1.594334E-02
-6.122393E-03
-1.702417E-02
1.989863E-01
3.599989E-01
2.829092E-01
4.581400E-01
5.358798E-01
5.936299E-01
7.006557E-01
1.163862E-01
3.652099E-02
7.762012E-01
7.455916E-01
-1.085768E-02
6.437587E-01
5.687813E-01
4.854831E-01
6.302124E-01
4.187375E-01
3.229777E-01
6.258195E-01
2.517740E-01
1.989863E-01
9.805595E-02
6.077118E-02
1.163149E-02
-1.702417E-02
-3.784880E-02
1.623761E-01
2.517740E-01
3.310450E-01
4.251995E-01
5.231796E-01
6.431100E-01
7.254986E-01
8.634592E-02
4.376548E-02
8.284029E-01
7.926317E-01
-3.571258E-02
7.006557E-01
5.936299E-01
5.358798E-01
6.717422E-01
4.581400E-01
3.599989E-01
2.829092E-01
1.989863E-01
1.163862E-01
3.652099E-02
-1.085768E-02
-3.784880E-02
-5.688220E-02
1.691776E-01
2.628887E-01
3.599989E-01
4.251995E-01
5.679363E-01
7.031962E-01
6.301165E-01
7.854281E-01
8.937925E-02
1.891097E-02
8.294660E-01
8.737626E-01
-4.782949E-02
7.254986E-01
7.455916E-01
6.431100E-01
5.231796E-01
7.302244E-01
4.251995E-01
3.310450E-01
2.517740E-01
1.623761E-01
8.634592E-02
4.376548E-02
-3.571258E-02
-5.688220E-02
-9.489007E-02
1.262210E-01
2.169024E-01
3.229777E-01
4.581400E-01
5.679363E-01
7.383358E-01
6.635040E-01
8.189248E-01
4.648880E-02
-2.293961E-02
8.682393E-01
8.986054E-01
-9.222350E-02
7.854281E-01
7.031962E-01
7.926317E-01
6.301165E-01
5.679363E-01
7.762012E-01
4.251995E-01
3.599989E-01
2.628887E-01
1.691776E-01
8.937925E-02
1.891097E-02
-4.782949E-02
-9.489007E-02
-1.181145E-01
1.293215E-01
1.920489E-01
3.487758E-01
5.231796E-01
4.187375E-01
6.301165E-01
7.116370E-01
7.941349E-01
8.649016E-01
2.762122E-02
-4.739457E-02
9.295054E-01
-1.177544E-01
8.189248E-01
7.383358E-01
8.294660E-01
6.635040E-01
5.679363E-01
8.284029E-01
4.581400E-01
3.229777E-01
2.169024E-01
1.262210E-01
4.648880E-02
-2.293961E-02
-9.222350E-02
-1.181145E-01
-1.640402E-01
7.361220E-02
2.034319E-01
3.239240E-01
5.358798E-01
4.333804E-01
6.431100E-01
7.383358E-01
7.941349E-01
8.950331E-01
-2.441157E-02
-9.781536E-02
9.543513E-01
9.292708E-01
-1.658710E-01
8.649016E-01
7.941349E-01
7.116370E-01
8.682393E-01
6.301165E-01
5.231796E-01
8.737626E-01
4.187375E-01
3.487758E-01
1.920489E-01
1.293215E-01
2.762122E-02
-4.739457E-02
-1.177544E-01
-1.640402E-01
-2.047598E-01
7.652220E-02
2.635226E-01
1.436146E-01
3.788852E-01
4.854831E-01
5.936299E-01
7.031962E-01
8.189248E-01
8.950331E-01
-7.033623E-02
-1.210410E-01
9.740040E-01
9.466320E-01
-2.118490E-01
8.950331E-01
7.941349E-01
7.383358E-01
8.986054E-01
6.431100E-01
5.358798E-01
4.333804E-01
3.239240E-01
2.034319E-01
7.361220E-02
-2.441157E-02
-9.781536E-02
-1.658710E-01
-2.047598E-01
-2.567485E-01
3.059951E-02
2.518439E-01
1.372808E-01
3.693873E-01
4.960308E-01
5.687813E-01
7.254986E-01
8.649016E-01
7.854281E-01
9.292708E-01
-8.224467E-02
-1.869581E-01
9.665193E-01
9.884601E-01
-2.620069E-01
8.950331E-01
9.292708E-01
8.189248E-01
7.031962E-01
9.295054E-01
5.936299E-01
4.854831E-01
3.788852E-01
2.635226E-01
1.436146E-01
7.652220E-02
-7.033623E-02
-1.210410E-01
-2.118490E-01
-2.567485E-01
-3.069571E-01
6.997271E-02
-3.625172E-02
1.854194E-01
3.027473E-01
4.344302E-01
5.836667E-01
7.006557E-01
8.682393E-01
7.926317E-01
9.295054E-01
-1.533712E-01
-2.073798E-01
9.740040E-01
9.884601E-01
-3.220114E-01
9.292708E-01
8.649016E-01
9.466320E-01
7.854281E-01
7.254986E-01
9.543513E-01
5.687813E-01
4.960308E-01
3.693873E-01
2.518439E-01
1.372808E-01
3.059951E-02
-8.224467E-02
-1.869581E-01
-2.620069E-01
-3.069571E-01
-3.529735E-01
3.942710E-02
-7.053297E-02
1.782060E-01
2.568286E-01
4.454945E-01
6.437587E-01
5.219805E-01
7.455916E-01
8.294660E-01
8.986054E-01
9.543513E-01
-1.797183E-01
-2.673827E-01
-3.553990E-01
9.295054E-01
8.682393E-01
9.665193E-01
7.926317E-01
7.006557E-01
9.740040E-01
5.836667E-01
4.344302E-01
3.027473E-01
1.854194E-01
6.997271E-02
-3.625172E-02
-1.533712E-01
-2.073798E-01
-3.220114E-01
-3.529735E-01
-4.190626E-01
9.952180E-02
-3.422736E-02
-1.428730E-01
2.595379E-01
3.995822E-01
6.302124E-01
5.179086E-01
7.302244E-01
8.284029E-01
8.737626E-01
-2.495925E-01
-3.305064E-01
-4.270064E-01
9.543513E-01
8.986054E-01
8.294660E-01
9.740040E-01
7.455916E-01
6.437587E-01
9.884601E-01
5.219805E-01
4.454945E-01
2.568286E-01
1.782060E-01
3.942710E-02
-7.053297E-02
-1.797183E-01
-2.673827E-01
-3.553990E-01
-4.190626E-01
-4.597079E-01
9.766066E-02
-9.422624E-02
-1.667502E-01
3.245872E-01
1.790542E-01
4.483550E-01
5.660485E-01
6.717422E-01
7.762012E-01
-2.965363E-01
-3.821719E-01
-4.693566E-01
8.737626E-01
8.284029E-01
9.884601E-01
7.302244E-01
6.302124E-01
5.179086E-01
3.995822E-01
2.595379E-01
9.952180E-02
-3.422736E-02
-1.428730E-01
-2.495925E-01
-3.305064E-01
-4.270064E-01
-4.597079E-01
-5.246567E-01
3.766849E-02
-1.041067E-01
-2.505393E-01
2.962143E-01
1.643241E-01
4.197208E-01
5.565764E-01
6.258195E-01
-3.659920E-01
-4.494146E-01
-5.311592E-01
7.762012E-01
6.717422E-01
5.660485E-01
4.483550E-01
3.245872E-01
1.790542E-01
9.766066E-02
-9.422624E-02
-1.667502E-01
-2.965363E-01
-3.821719E-01
-4.693566E-01
-5.246567E-01
-5.744422E-01
8.284923E-02
-4.400530E-02
-1.911347E-01
-2.650433E-01
2.164350E-01
3.425751E-01
4.798023E-01
-4.309375E-01
-4.863215E-01
-5.873561E-01
6.258195E-01
5.565764E-01
4.197208E-01
2.962143E-01
1.643241E-01
3.766849E-02
-1.041067E-01
-2.505393E-01
-3.659920E-01
-4.494146E-01
-5.311592E-01
-5.744422E-01
-6.356282E-01
4.530751E-02
-8.288576E-02
-2.142808E-01
-3.299824E-01
1.999953E-01
2.825689E-01
-4.519043E-01
-5.624604E-01
-6.420396E-01
4.798023E-01
3.425751E-01
2.164350E-01
8.284923E-02
-4.400530E-02
-1.911347E-01
-2.650433E-01
-4.309375E-01
-4.863215E-01
-5.873561E-01
-6.356282E-01
-6.875368E-01
1.103427E-01
-3.875369E-02
-1.661333E-01
-2.952728E-01
-4.059009E-01
-5.322282E-01
-5.874003E-01
-7.020470E-01
2.825689E-01
1.999953E-01
4.530751E-02
-8.288576E-02
-2.142808E-01
-3.299824E-01
-4.519043E-01
-5.624604E-01
-6.420396E-01
-6.875368E-01
-7.318580E-01
-1.037069E-01
-1.870380E-01
-3.360067E-01
-4.493704E-01
-5.602676E-01
-6.474019E-01
-7.309112E-01
1.103427E-01
-3.875369E-02
-1.661333E-01
-2.952728E-01
-4.059009E-01
-5.322282E-01
-5.874003E-01
-7.020470E-01
-7.318580E-01
-7.887585E-01
-2.759195E-01
-4.141859E-01
-5.234133E-01
-6.284480E-01
-7.060096E-01
-7.923071E-01
-1.037069E-01
-1.870380E-01
-3.360067E-01
-4.493704E-01
-5.602676E-01
-6.474019E-01
-7.309112E-01
-7.887585E-01
-8.203434E-01
-4.741981E-01
-5.456009E-01
-6.661746E-01
-7.474539E-01
-8.209766E-01
-2.759195E-01
-4.141859E-01
-5.234133E-01
-6.284480E-01
-7.060096E-01
-7.923071E-01
-8.203434E-01
-8.662823E-01
-6.201818E-01
-7.265727E-01
-8.010249E-01
-8.659739E-01
-4.741981E-01
-5.456009E-01
-6.661746E-01
-7.474539E-01
-8.209766E-01
-8.662823E-01
-8.986640E-01
-7.725118E-01
-8.211207E-01
-8.949595E-01
-6.201818E-01
-7.265727E-01
-8.010249E-01
-8.659739E-01
-8.986640E-01
-9.317932E-01
-8.700581E-01
-9.283972E-01
-7.725118E-01
-8.211207E-01
-8.949595E-01
-9.317932E-01
-9.567614E-01
-9.532976E-01
-8.700581E-01
-9.283972E-01
-9.567614E-01
-9.717330E-01
-9.532976E-01
-9.717330E-01
-9.876886E-01
-9.876886E-01
