# vtk DataFile Version 2.0
Grille
ASCII
DATASET POLYDATA
POINTS 481 float
0.000000E+00 8.750000E-01 -7.472733E-01
6.250000E-02 8.750000E-01 -7.314348E-01
1.250000E-01 8.750000E-01 -6.903164E-01
1.250000E-01 9.375000E-01 -7.314348E-01
1.250000E-01 1.000000E+00 -7.472733E-01
6.250000E-02 1.000000E+00 -7.918057E-01
0.000000E+00 1.000000E+00 -8.093206E-01
0.000000E+00 9.375000E-01 -7.918057E-01
3.750000E-02 9.125000E-01 -7.706341E-01
8.125000E-02 9.187500E-01 -7.555069E-01
8.750000E-02 9.625000E-01 -7.706341E-01
4.375000E-02 9.562500E-01 -7.919699E-01
1.875000E-01 8.750000E-01 -6.200673E-01
2.500000E-01 8.750000E-01 -5.281684E-01
2.500000E-01 9.375000E-01 -5.596971E-01
2.500000E-01 1.000000E+00 -5.717250E-01
1.875000E-01 1.000000E+00 -6.710633E-01
1.625000E-01 9.125000E-01 -6.770016E-01
2.062500E-01 9.187500E-01 -6.223479E-01
2.125000E-01 9.625000E-01 -6.286315E-01
1.687500E-01 9.562500E-01 -6.895662E-01
0.000000E+00 7.500000E-01 -5.717250E-01
6.250000E-02 7.500000E-01 -5.596971E-01
1.250000E-01 7.500000E-01 -5.281684E-01
1.250000E-01 8.125000E-01 -6.200673E-01
0.000000E+00 8.125000E-01 -6.710633E-01
3.750000E-02 7.875000E-01 -6.286315E-01
8.125000E-02 7.937500E-01 -6.223479E-01
8.750000E-02 8.375000E-01 -6.770016E-01
4.375000E-02 8.312500E-01 -6.895662E-01
1.875000E-01 7.500000E-01 -4.746087E-01
2.500000E-01 7.500000E-01 -4.040729E-01
2.500000E-01 8.125000E-01 -4.746087E-01
1.625000E-01 7.875000E-01 -5.523815E-01
2.062500E-01 7.937500E-01 -5.126325E-01
2.125000E-01 8.375000E-01 -5.523815E-01
1.687500E-01 8.312500E-01 -6.004353E-01
3.125000E-01 8.750000E-01 -4.142530E-01
3.750000E-01 8.750000E-01 -2.855698E-01
3.750000E-01 9.375000E-01 -3.027310E-01
3.750000E-01 1.000000E+00 -3.091281E-01
3.125000E-01 1.000000E+00 -4.482014E-01
2.875000E-01 9.125000E-01 -4.802734E-01
3.312500E-01 9.187500E-01 -3.944218E-01
3.375000E-01 9.625000E-01 -3.909314E-01
2.937500E-01 9.562500E-01 -4.822143E-01
4.375000E-01 8.750000E-01 -1.453292E-01
5.000000E-01 8.750000E-01 5.501229E-04
5.000000E-01 9.375000E-01 3.628980E-04
5.000000E-01 1.000000E+00 5.683648E-04
4.375000E-01 1.000000E+00 -1.570761E-01
4.125000E-01 9.125000E-01 -2.103942E-01
4.562500E-01 9.187500E-01 -1.064106E-01
4.625000E-01 9.625000E-01 -9.368140E-02
4.187500E-01 9.562500E-01 -2.014225E-01
3.125000E-01 7.500000E-01 -3.171838E-01
3.750000E-01 7.500000E-01 -2.183915E-01
3.750000E-01 8.125000E-01 -2.568365E-01
2.875000E-01 7.875000E-01 -3.919554E-01
3.312500E-01 7.937500E-01 -3.248042E-01
3.375000E-01 8.375000E-01 -3.436098E-01
2.937500E-01 8.312500E-01 -4.198271E-01
4.375000E-01 7.500000E-01 -1.114075E-01
5.000000E-01 7.500000E-01 5.979627E-04
5.000000E-01 8.125000E-01 8.986696E-05
4.125000E-01 7.875000E-01 -1.717978E-01
4.562500E-01 7.937500E-01 -8.747083E-02
4.625000E-01 8.375000E-01 -8.247657E-02
4.187500E-01 8.312500E-01 -1.752522E-01
0.000000E+00 6.250000E-01 -3.091281E-01
6.250000E-02 6.250000E-01 -3.027310E-01
1.250000E-01 6.250000E-01 -2.855698E-01
1.250000E-01 6.875000E-01 -4.142530E-01
0.000000E+00 6.875000E-01 -4.482014E-01
3.750000E-02 6.625000E-01 -3.909314E-01
8.125000E-02 6.687500E-01 -3.944218E-01
8.750000E-02 7.125000E-01 -4.802734E-01
4.375000E-02 7.062500E-01 -4.822143E-01
1.875000E-01 6.250000E-01 -2.568365E-01
2.500000E-01 6.250000E-01 -2.183915E-01
2.500000E-01 6.875000E-01 -3.171838E-01
1.625000E-01 6.625000E-01 -3.436098E-01
2.062500E-01 6.687500E-01 -3.248042E-01
2.125000E-01 7.125000E-01 -3.919554E-01
1.687500E-01 7.062500E-01 -4.198271E-01
0.000000E+00 5.000000E-01 5.683648E-04
6.250000E-02 5.000000E-01 3.628980E-04
1.250000E-01 5.000000E-01 5.501229E-04
1.250000E-01 5.625000E-01 -1.453292E-01
0.000000E+00 5.625000E-01 -1.570761E-01
3.750000E-02 5.375000E-01 -9.368140E-02
8.125000E-02 5.437500E-01 -1.064106E-01
8.750000E-02 5.875000E-01 -2.103942E-01
4.375000E-02 5.812500E-01 -2.014225E-01
1.875000E-01 5.000000E-01 8.986696E-05
2.500000E-01 5.000000E-01 5.979627E-04
2.500000E-01 5.625000E-01 -1.114075E-01
1.625000E-01 5.375000E-01 -8.247657E-02
2.062500E-01 5.437500E-01 -8.747083E-02
2.125000E-01 5.875000E-01 -1.717978E-01
1.687500E-01 5.812500E-01 -1.752522E-01
3.125000E-01 6.250000E-01 -1.717502E-01
3.750000E-01 6.250000E-01 -1.178850E-01
3.750000E-01 6.875000E-01 -1.717502E-01
2.875000E-01 6.625000E-01 -2.438871E-01
3.312500E-01 6.687500E-01 -2.056549E-01
3.375000E-01 7.125000E-01 -2.438871E-01
2.937500E-01 7.062500E-01 -2.934421E-01
4.375000E-01 6.250000E-01 -6.044287E-02
5.000000E-01 6.250000E-01 6.377913E-04
5.000000E-01 6.875000E-01 -1.036329E-04
4.125000E-01 6.625000E-01 -1.069610E-01
4.562500E-01 6.687500E-01 -5.512691E-02
4.625000E-01 7.125000E-01 -5.862364E-02
4.187500E-01 7.062500E-01 -1.223136E-01
3.125000E-01 5.000000E-01 -1.036329E-04
3.750000E-01 5.000000E-01 6.377913E-04
3.750000E-01 5.625000E-01 -6.044287E-02
2.875000E-01 5.375000E-01 -5.862364E-02
3.312500E-01 5.437500E-01 -5.512691E-02
3.375000E-01 5.875000E-01 -1.069610E-01
2.937500E-01 5.812500E-01 -1.223136E-01
4.375000E-01 5.000000E-01 -2.045913E-04
5.000000E-01 5.000000E-01 6.529912E-04
5.000000E-01 5.625000E-01 -2.045913E-04
4.125000E-01 5.375000E-01 -2.576699E-02
4.562500E-01 5.437500E-01 -1.431545E-02
4.625000E-01 5.875000E-01 -2.576699E-02
4.187500E-01 5.812500E-01 -5.067669E-02
5.625000E-01 8.750000E-01 1.457672E-01
6.250000E-01 8.750000E-01 2.866342E-01
6.250000E-01 9.375000E-01 3.034457E-01
6.250000E-01 1.000000E+00 3.102213E-01
5.625000E-01 1.000000E+00 1.580044E-01
5.375000E-01 9.125000E-01 9.155939E-02
5.812500E-01 9.187500E-01 1.978454E-01
5.875000E-01 9.625000E-01 2.178738E-01
5.437500E-01 9.562500E-01 1.100758E-01
6.875000E-01 8.750000E-01 4.147192E-01
7.500000E-01 8.750000E-01 5.291266E-01
7.500000E-01 9.375000E-01 5.603715E-01
7.500000E-01 1.000000E+00 5.726833E-01
6.875000E-01 1.000000E+00 4.490720E-01
6.625000E-01 9.125000E-01 3.796191E-01
7.062500E-01 9.187500E-01 4.720248E-01
7.125000E-01 9.625000E-01 4.963008E-01
6.687500E-01 9.562500E-01 4.048591E-01
5.625000E-01 7.500000E-01 1.113880E-01
6.250000E-01 7.500000E-01 2.195544E-01
6.250000E-01 8.125000E-01 2.570554E-01
5.375000E-01 7.875000E-01 7.456985E-02
5.812500E-01 7.937500E-01 1.632337E-01
5.875000E-01 8.375000E-01 1.912637E-01
5.437500E-01 8.312500E-01 9.605446E-02
6.875000E-01 7.500000E-01 3.172841E-01
7.500000E-01 7.500000E-01 4.051456E-01
7.500000E-01 8.125000E-01 4.749397E-01
6.625000E-01 7.875000E-01 3.096399E-01
7.062500E-01 7.937500E-01 3.891420E-01
7.125000E-01 8.375000E-01 4.359362E-01
6.687500E-01 8.312500E-01 3.527889E-01
8.125000E-01 8.750000E-01 6.205776E-01
8.750000E-01 8.750000E-01 6.911056E-01
8.750000E-01 9.375000E-01 7.320057E-01
8.750000E-01 1.000000E+00 7.479680E-01
8.125000E-01 1.000000E+00 6.718014E-01
7.875000E-01 9.125000E-01 6.099245E-01
8.312500E-01 9.187500E-01 6.743759E-01
8.375000E-01 9.625000E-01 6.991955E-01
7.937500E-01 9.562500E-01 6.380400E-01
9.375000E-01 8.750000E-01 7.320057E-01
1.000000E+00 8.750000E-01 7.479680E-01
1.000000E+00 9.375000E-01 7.922156E-01
1.000000E+00 1.000000E+00 8.091088E-01
9.375000E-01 1.000000E+00 7.922156E-01
9.125000E-01 9.125000E-01 7.473988E-01
9.562500E-01 9.187500E-01 7.740781E-01
9.625000E-01 9.625000E-01 7.955917E-01
9.187500E-01 9.562500E-01 7.740781E-01
8.125000E-01 7.500000E-01 4.749397E-01
8.750000E-01 7.500000E-01 5.291266E-01
8.750000E-01 8.125000E-01 6.205776E-01
7.875000E-01 7.875000E-01 4.976272E-01
8.312500E-01 7.937500E-01 5.558654E-01
8.375000E-01 8.375000E-01 6.142921E-01
7.937500E-01 8.312500E-01 5.558654E-01
9.375000E-01 7.500000E-01 5.603715E-01
1.000000E+00 7.500000E-01 5.726833E-01
1.000000E+00 8.125000E-01 6.718014E-01
9.125000E-01 7.875000E-01 6.099245E-01
9.562500E-01 7.937500E-01 6.380400E-01
9.625000E-01 8.375000E-01 6.991955E-01
9.187500E-01 8.312500E-01 6.743759E-01
5.625000E-01 6.250000E-01 6.013319E-02
6.250000E-01 6.250000E-01 1.191296E-01
6.250000E-01 6.875000E-01 1.716214E-01
5.375000E-01 6.625000E-01 4.631455E-02
5.812500E-01 6.687500E-01 1.038578E-01
5.875000E-01 7.125000E-01 1.356258E-01
5.437500E-01 7.062500E-01 6.749844E-02
6.875000E-01 6.250000E-01 1.716214E-01
7.500000E-01 6.250000E-01 2.195544E-01
7.500000E-01 6.875000E-01 3.172841E-01
6.625000E-01 6.625000E-01 1.926035E-01
7.062500E-01 6.687500E-01 2.470960E-01
7.125000E-01 7.125000E-01 3.092895E-01
6.687500E-01 7.062500E-01 2.470960E-01
5.625000E-01 5.000000E-01 -2.045913E-04
6.250000E-01 5.000000E-01 6.377913E-04
6.250000E-01 5.625000E-01 6.013319E-02
5.375000E-01 5.375000E-01 1.108288E-02
5.812500E-01 5.437500E-01 2.874448E-02
5.875000E-01 5.875000E-01 5.941768E-02
5.437500E-01 5.812500E-01 2.874448E-02
6.875000E-01 5.000000E-01 -1.036329E-04
7.500000E-01 5.000000E-01 5.979627E-04
7.500000E-01 5.625000E-01 1.113880E-01
6.625000E-01 5.375000E-01 4.631455E-02
7.062500E-01 5.437500E-01 6.749844E-02
7.125000E-01 5.875000E-01 1.356258E-01
6.687500E-01 5.812500E-01 1.038578E-01
8.125000E-01 6.250000E-01 2.570554E-01
8.750000E-01 6.250000E-01 2.866342E-01
8.750000E-01 6.875000E-01 4.147192E-01
7.875000E-01 6.625000E-01 3.096399E-01
8.312500E-01 6.687500E-01 3.527889E-01
8.375000E-01 7.125000E-01 4.359362E-01
7.937500E-01 7.062500E-01 3.891420E-01
9.375000E-01 6.250000E-01 3.034457E-01
1.000000E+00 6.250000E-01 3.102213E-01
1.000000E+00 6.875000E-01 4.490720E-01
9.125000E-01 6.625000E-01 3.796191E-01
9.562500E-01 6.687500E-01 4.048591E-01
9.625000E-01 7.125000E-01 4.963008E-01
9.187500E-01 7.062500E-01 4.720248E-01
8.125000E-01 5.000000E-01 8.986696E-05
8.750000E-01 5.000000E-01 5.501229E-04
8.750000E-01 5.625000E-01 1.457672E-01
7.875000E-01 5.375000E-01 7.456985E-02
8.312500E-01 5.437500E-01 9.605446E-02
8.375000E-01 5.875000E-01 1.912637E-01
7.937500E-01 5.812500E-01 1.632337E-01
9.375000E-01 5.000000E-01 3.628980E-04
1.000000E+00 5.000000E-01 5.683648E-04
1.000000E+00 5.625000E-01 1.580044E-01
9.125000E-01 5.375000E-01 9.155939E-02
9.562500E-01 5.437500E-01 1.100758E-01
9.625000E-01 5.875000E-01 2.178738E-01
9.187500E-01 5.812500E-01 1.978454E-01
0.000000E+00 3.750000E-01 3.102213E-01
6.250000E-02 3.750000E-01 3.034457E-01
[...]
CELL_DATA 896
SCALARS sol float 1
LOOKUP_TABLE default
-7.497807E-01
-7.525253E-01
-7.699043E-01
-7.227581E-01
-7.727036E-01
-7.257527E-01
-7.848032E-01
-7.026343E-01
-6.993342E-01
-7.727036E-01
-7.257527E-01
-6.995843E-01
-7.976987E-01
-6.630870E-01
-6.629719E-01
-7.848032E-01
-7.525253E-01
-6.995843E-01
-6.624618E-01
-7.976987E-01
-6.468485E-01
-6.238066E-01
-6.398056E-01
-7.699043E-01
-7.497807E-01
-6.624618E-01
-6.993342E-01
-6.369397E-01
-6.035588E-01
-5.866845E-01
-5.901945E-01
-7.227581E-01
-6.398056E-01
-6.369397E-01
-6.629719E-01
-5.909614E-01
-5.700711E-01
-5.378788E-01
-5.668724E-01
-7.026343E-01
-5.901945E-01
-5.909614E-01
-6.468485E-01
-5.551498E-01
-5.227129E-01
-5.007136E-01
-5.073949E-01
-5.183862E-01
-6.630870E-01
-5.700711E-01
-5.668724E-01
-5.551498E-01
-6.035588E-01
-5.132075E-01
-4.742316E-01
-4.404490E-01
-4.523032E-01
-4.742014E-01
-6.238066E-01
-5.227129E-01
-5.183862E-01
-5.132075E-01
-5.866845E-01
-4.637713E-01
-4.296494E-01
-4.540828E-01
-4.225225E-01
-3.827536E-01
-4.287970E-01
-4.742316E-01
-5.073949E-01
-4.742014E-01
-4.637713E-01
-5.378788E-01
-4.235456E-01
-3.647482E-01
-3.925633E-01
-3.626947E-01
-3.342635E-01
-3.788622E-01
-4.296494E-01
-4.540828E-01
-4.523032E-01
-4.287970E-01
-4.235456E-01
-5.007136E-01
-3.710707E-01
-3.275742E-01
-3.478109E-01
-3.627470E-01
-2.710939E-01
-3.446478E-01
-3.647482E-01
-3.925633E-01
-4.225225E-01
-3.788622E-01
-3.710707E-01
-4.404490E-01
-3.382329E-01
-2.662316E-01
-2.953387E-01
-3.084168E-01
-2.225422E-01
-2.381826E-01
-2.867932E-01
-3.275742E-01
-3.478109E-01
-3.627470E-01
-3.626947E-01
-3.446478E-01
-3.382329E-01
-3.827536E-01
-2.848376E-01
-2.137644E-01
-2.392195E-01
-2.666774E-01
-1.507267E-01
-1.727424E-01
-2.598208E-01
-2.662316E-01
-2.953387E-01
-3.084168E-01
-3.342635E-01
-2.867932E-01
-2.848376E-01
-2.476613E-01
-2.020504E-01
-1.540447E-01
-2.012955E-01
-2.156753E-01
-1.338382E-01
-8.339639E-02
-2.113429E-01
-2.137644E-01
-2.381826E-01
-2.392195E-01
-2.666774E-01
-2.710939E-01
-2.598208E-01
-2.476613E-01
-2.070974E-01
-1.343526E-01
-8.372989E-02
-1.448403E-01
-1.671989E-01
-6.657637E-02
-3.091671E-02
-1.708184E-01
-1.540447E-01
-2.020504E-01
-1.727424E-01
-2.012955E-01
-2.156753E-01
-2.225422E-01
-2.113429E-01
-2.070974E-01
-1.650967E-01
-1.150665E-01
-7.575188E-02
-3.516586E-02
-1.235587E-01
-1.507042E-01
3.700234E-02
-1.336749E-01
-8.372989E-02
-1.343526E-01
-1.338382E-01
-1.448403E-01
-1.671989E-01
-1.507267E-01
-1.708184E-01
-1.650967E-01
-1.321987E-01
-5.661918E-02
-2.727886E-02
3.082414E-02
-6.609345E-02
-9.744824E-02
8.954950E-02
6.733268E-02
-9.480049E-02
-3.516586E-02
-7.575188E-02
-1.150665E-01
-6.657637E-02
-1.235587E-01
-1.507042E-01
-8.339639E-02
-1.336749E-01
-1.321987E-01
-9.509630E-02
-2.892767E-02
3.223148E-02
7.929222E-02
-5.647772E-02
-7.868804E-02
1.619846E-01
1.331602E-01
-7.417692E-02
3.082414E-02
-2.727886E-02
-5.661918E-02
-3.091671E-02
-6.609345E-02
-9.744824E-02
-9.480049E-02
-9.509630E-02
-7.633486E-02
2.508589E-02
8.079058E-02
5.690473E-02
1.450573E-01
-1.937644E-02
-3.795139E-02
1.752650E-01
2.286998E-01
-3.831066E-02
7.929222E-02
6.733268E-02
3.223148E-02
-2.892767E-02
3.700234E-02
-5.647772E-02
-7.868804E-02
-7.417692E-02
-7.633486E-02
-4.562885E-02
6.218528E-02
1.443618E-01
1.112860E-01
2.100822E-01
2.266426E-02
-1.819758E-02
2.397216E-01
2.771803E-01
-2.852402E-02
1.450573E-01
8.079058E-02
1.331602E-01
5.690473E-02
2.508589E-02
8.954950E-02
-1.937644E-02
-3.795139E-02
-3.831066E-02
-4.562885E-02
-3.025304E-02
5.982814E-02
1.163972E-01
1.501839E-01
2.078883E-01
2.626418E-01
3.790312E-02
1.561624E-02
3.395087E-01
-8.444598E-03
2.100822E-01
1.443618E-01
1.752650E-01
1.112860E-01
6.218528E-02
1.619846E-01
2.266426E-02
-1.819758E-02
-2.852402E-02
-3.025304E-02
-1.342901E-02
1.048374E-01
1.647254E-01
2.038509E-01
2.449844E-01
3.232330E-01
7.255692E-02
3.569518E-02
3.880508E-01
3.626413E-01
9.725895E-03
2.626418E-01
2.078883E-01
1.501839E-01
2.397216E-01
1.163972E-01
5.982814E-02
2.286998E-01
3.790312E-02
1.561624E-02
-8.444598E-03
-1.342901E-02
-4.622349E-03
1.023273E-01
1.555227E-01
2.132811E-01
2.988261E-01
3.603242E-01
7.010183E-02
2.983849E-02
4.500773E-01
4.188344E-01
1.320759E-02
3.232330E-01
2.449844E-01
2.038509E-01
2.771803E-01
1.647254E-01
1.048374E-01
7.255692E-02
3.569518E-02
9.725895E-03
-4.622349E-03
3.843760E-03
1.370350E-01
1.756005E-01
2.620832E-01
3.513808E-01
3.064947E-01
4.221211E-01
9.437352E-02
4.943178E-02
4.577283E-01
5.060187E-01
2.285728E-02
3.603242E-01
3.626413E-01
2.988261E-01
2.132811E-01
3.395087E-01
1.555227E-01
1.023273E-01
7.010183E-02
2.983849E-02
1.320759E-02
3.843760E-03
3.843760E-03
1.315362E-01
2.127573E-01
2.821595E-01
4.011481E-01
3.505236E-01
4.719569E-01
7.956016E-02
3.896888E-02
5.095657E-01
5.431185E-01
1.320759E-02
4.221211E-01
3.513808E-01
4.188344E-01
3.064947E-01
2.620832E-01
3.880508E-01
1.756005E-01
1.370350E-01
9.437352E-02
4.943178E-02
2.285728E-02
3.843760E-03
-4.622349E-03
1.611182E-01
2.613115E-01
2.037736E-01
3.386887E-01
3.926224E-01
4.599274E-01
5.205076E-01
7.956016E-02
4.943178E-02
5.903649E-01
9.725895E-03
4.719569E-01
4.011481E-01
4.577283E-01
3.505236E-01
2.821595E-01
4.500773E-01
2.127573E-01
1.315362E-01
7.956016E-02
3.896888E-02
1.320759E-02
-4.622349E-03
-1.342901E-02
1.611182E-01
2.912232E-01
2.289319E-01
3.705239E-01
4.333393E-01
4.800009E-01
5.664742E-01
9.437352E-02
2.983849E-02
6.275082E-01
6.027786E-01
-8.444598E-03
5.205076E-01
4.599274E-01
3.926224E-01
5.095657E-01
3.386887E-01
2.613115E-01
5.060187E-01
2.037736E-01
1.611182E-01
7.956016E-02
4.943178E-02
9.725895E-03
-1.342901E-02
-3.025304E-02
1.315362E-01
2.037736E-01
2.678272E-01
3.439064E-01
4.230758E-01
5.199772E-01
5.865429E-01
7.010183E-02
3.569518E-02
6.696789E-01
6.407801E-01
-2.852402E-02
5.664742E-01
4.800009E-01
4.333393E-01
5.431185E-01
3.705239E-01
2.912232E-01
2.289319E-01
1.611182E-01
9.437352E-02
2.983849E-02
-8.444598E-03
-3.025304E-02
-4.562885E-02
1.370350E-01
2.127573E-01
2.912232E-01
3.439064E-01
4.592375E-01
5.685232E-01
5.094775E-01
6.349593E-01
7.255692E-02
1.561624E-02
6.705371E-01
7.063216E-01
-3.831066E-02
5.865429E-01
6.027786E-01
5.199772E-01
4.230758E-01
5.903649E-01
3.439064E-01
2.678272E-01
2.037736E-01
1.315362E-01
7.010183E-02
3.569518E-02
-2.852402E-02
-4.562885E-02
-7.633486E-02
1.023273E-01
1.756005E-01
2.613115E-01
3.705239E-01
4.592375E-01
5.969117E-01
5.364527E-01
6.620197E-01
3.790312E-02
-1.819758E-02
7.018590E-01
7.263897E-01
-7.417692E-02
6.349593E-01
5.685232E-01
6.407801E-01
5.094775E-01
4.592375E-01
6.275082E-01
3.439064E-01
2.912232E-01
2.127573E-01
1.370350E-01
7.255692E-02
1.561624E-02
-3.831066E-02
-7.633486E-02
-9.509630E-02
1.048374E-01
1.555227E-01
2.821595E-01
4.230758E-01
3.386887E-01
5.094775E-01
5.753410E-01
6.419918E-01
6.991624E-01
2.266426E-02
-3.795139E-02
7.513506E-01
-9.480049E-02
6.620197E-01
5.969117E-01
6.705371E-01
5.364527E-01
4.592375E-01
6.696789E-01
3.705239E-01
2.613115E-01
1.756005E-01
1.023273E-01
3.790312E-02
-1.819758E-02
-7.417692E-02
-9.509630E-02
-1.321987E-01
5.982814E-02
1.647254E-01
2.620832E-01
4.333393E-01
3.505236E-01
5.199772E-01
5.969117E-01
6.419918E-01
7.235034E-01
-1.937644E-02
-7.868804E-02
7.714205E-01
7.511609E-01
-1.336749E-01
6.991624E-01
6.419918E-01
5.753410E-01
7.018590E-01
5.094775E-01
4.230758E-01
7.063216E-01
3.386887E-01
2.821595E-01
1.555227E-01
1.048374E-01
2.266426E-02
-3.795139E-02
-9.480049E-02
-1.321987E-01
-1.650967E-01
6.218528E-02
2.132811E-01
1.163972E-01
3.064947E-01
3.926224E-01
4.800009E-01
5.685232E-01
6.620197E-01
7.235034E-01
-5.647772E-02
-9.744824E-02
7.872951E-01
7.651850E-01
-1.708184E-01
7.235034E-01
6.419918E-01
5.969117E-01
7.263897E-01
5.199772E-01
4.333393E-01
3.505236E-01
2.620832E-01
1.647254E-01
5.982814E-02
-1.937644E-02
-7.868804E-02
-1.336749E-01
-1.650967E-01
-2.070974E-01
2.508589E-02
2.038509E-01
1.112860E-01
2.988261E-01
4.011481E-01
4.599274E-01
5.865429E-01
6.991624E-01
6.349593E-01
7.511609E-01
-6.609345E-02
-1.507042E-01
7.812493E-01
7.989720E-01
-2.113429E-01
7.235034E-01
7.511609E-01
6.620197E-01
5.685232E-01
7.513506E-01
4.800009E-01
3.926224E-01
3.064947E-01
2.132811E-01
1.163972E-01
6.218528E-02
-5.647772E-02
-9.744824E-02
-1.708184E-01
-2.070974E-01
-2.476613E-01
5.690473E-02
-2.892767E-02
1.501839E-01
2.449844E-01
3.513808E-01
4.719569E-01
5.664742E-01
7.018590E-01
6.407801E-01
7.513506E-01
-1.235587E-01
-1.671989E-01
7.872951E-01
7.989720E-01
-2.598208E-01
7.511609E-01
6.991624E-01
7.651850E-01
6.349593E-01
5.865429E-01
7.714205E-01
4.599274E-01
4.011481E-01
2.988261E-01
2.038509E-01
1.112860E-01
2.508589E-02
-6.609345E-02
-1.507042E-01
-2.113429E-01
-2.476613E-01
-2.848376E-01
3.223148E-02
-5.661918E-02
1.443618E-01
2.078883E-01
3.603242E-01
5.205076E-01
4.221211E-01
6.027786E-01
6.705371E-01
7.263897E-01
7.714205E-01
-1.448403E-01
-2.156753E-01
-2.867932E-01
7.513506E-01
7.018590E-01
7.812493E-01
6.407801E-01
5.664742E-01
7.872951E-01
4.719569E-01
3.513808E-01
2.449844E-01
1.501839E-01
5.690473E-02
-2.892767E-02
-1.235587E-01
-1.671989E-01
-2.598208E-01
-2.848376E-01
-3.382329E-01
8.079058E-02
-2.727886E-02
-1.150665E-01
2.100822E-01
3.232330E-01
5.095657E-01
4.188344E-01
5.903649E-01
6.696789E-01
7.063216E-01
-2.012955E-01
-2.666774E-01
-3.446478E-01
7.714205E-01
7.263897E-01
6.705371E-01
7.872951E-01
6.027786E-01
5.205076E-01
7.989720E-01
4.221211E-01
3.603242E-01
2.078883E-01
1.443618E-01
3.223148E-02
-5.661918E-02
-1.448403E-01
-2.156753E-01
-2.867932E-01
-3.382329E-01
-3.710707E-01
7.929222E-02
-7.575188E-02
-1.343526E-01
2.626418E-01
1.450573E-01
3.626413E-01
4.577283E-01
5.431185E-01
6.275082E-01
-2.392195E-01
-3.084168E-01
-3.788622E-01
7.063216E-01
6.696789E-01
7.989720E-01
5.903649E-01
5.095657E-01
4.188344E-01
3.232330E-01
2.100822E-01
8.079058E-02
-2.727886E-02
-1.150665E-01
-2.012955E-01
-2.666774E-01
-3.446478E-01
-3.710707E-01
-4.235456E-01
3.082414E-02
-8.372989E-02
-2.020504E-01
2.397216E-01
1.331602E-01
3.395087E-01
4.500773E-01
5.060187E-01
-2.953387E-01
-3.627470E-01
-4.287970E-01
6.275082E-01
5.431185E-01
4.577283E-01
3.626413E-01
2.626418E-01
1.450573E-01
7.929222E-02
-7.575188E-02
-1.343526E-01
-2.392195E-01
-3.084168E-01
-3.788622E-01
-4.235456E-01
-4.637713E-01
6.733268E-02
-3.516586E-02
-1.540447E-01
-2.137644E-01
1.752650E-01
2.771803E-01
3.880508E-01
-3.478109E-01
-3.925633E-01
-4.742014E-01
5.060187E-01
4.500773E-01
3.395087E-01
2.397216E-01
1.331602E-01
3.082414E-02
-8.372989E-02
-2.020504E-01
-2.953387E-01
-3.627470E-01
-4.287970E-01
-4.637713E-01
-5.132075E-01
3.700234E-02
-6.657637E-02
-1.727424E-01
-2.662316E-01
1.619846E-01
2.286998E-01
-3.647482E-01
-4.540828E-01
-5.183862E-01
3.880508E-01
2.771803E-01
1.752650E-01
6.733268E-02
-3.516586E-02
-1.540447E-01
-2.137644E-01
-3.478109E-01
-3.925633E-01
-4.742014E-01
-5.132075E-01
-5.551498E-01
8.954950E-02
-3.091671E-02
-1.338382E-01
-2.381826E-01
-3.275742E-01
-4.296494E-01
-4.742316E-01
-5.668724E-01
2.286998E-01
1.619846E-01
3.700234E-02
-6.657637E-02
-1.727424E-01
-2.662316E-01
-3.647482E-01
-4.540828E-01
-5.183862E-01
-5.551498E-01
-5.909614E-01
-8.339639E-02
-1.507267E-01
-2.710939E-01
-3.626947E-01
-4.523032E-01
-5.227129E-01
-5.901945E-01
8.954950E-02
-3.091671E-02
-1.338382E-01
-2.381826E-01
-3.275742E-01
-4.296494E-01
-4.742316E-01
-5.668724E-01
-5.909614E-01
-6.369397E-01
-2.225422E-01
-3.342635E-01
-4.225225E-01
-5.073949E-01
-5.700711E-01
-6.398056E-01
-8.339639E-02
-1.507267E-01
-2.710939E-01
-3.626947E-01
-4.523032E-01
-5.227129E-01
-5.901945E-01
-6.369397E-01
-6.624618E-01
-3.827536E-01
-4.404490E-01
-5.378788E-01
-6.035588E-01
-6.629719E-01
-2.225422E-01
-3.342635E-01
-4.225225E-01
-5.073949E-01
-5.700711E-01
-6.398056E-01
-6.624618E-01
-6.995843E-01
-5.007136E-01
-5.866845E-01
-6.468485E-01
-6.993342E-01
-3.827536E-01
-4.404490E-01
-5.378788E-01
-6.035588E-01
-6.629719E-01
-6.995843E-01
-7.257527E-01
-6.238066E-01
-6.630870E-01
-7.227581E-01
-5.007136E-01
-5.866845E-01
-6.468485E-01
-6.993342E-01
-7.257527E-01
-7.525253E-01
-7.026343E-01
-7.497807E-01
-6.238066E-01
-6.630870E-01
-7.227581E-01
-7.525253E-01
-7.727036E-01
-7.699043E-01
-7.026343E-01
-7.497807E-01
-7.727036E-01
-7.848032E-01
-7.699043E-01
-7.848032E-01
-7.976987E-01
-7.976987E-01
