# vtk DataFile Version 2.0
Grille
ASCII
DATASET POLYDATA
POINTS 481 float
0.000000E+00 8.750000E-01 -8.504968E-01
6.250000E-02 8.750000E-01 -8.324745E-01
1.250000E-01 8.750000E-01 -7.856854E-01
1.250000E-01 9.375000E-01 -8.324745E-01
1.250000E-01 1.000000E+00 -8.504968E-01
6.250000E-02 1.000000E+00 -9.011709E-01
0.000000E+00 1.000000E+00 -9.211010E-01
0.000000E+00 9.375000E-01 -9.011709E-01
3.750000E-02 9.125000E-01 -8.770796E-01
8.125000E-02 9.187500E-01 -8.598662E-01
8.750000E-02 9.625000E-01 -8.770796E-01
4.375000E-02 9.562500E-01 -9.013578E-01
1.875000E-01 8.750000E-01 -7.057485E-01
2.500000E-01 8.750000E-01 -6.011758E-01
2.500000E-01 9.375000E-01 -6.370526E-01
2.500000E-01 1.000000E+00 -6.507388E-01
1.875000E-01 1.000000E+00 -7.637772E-01
1.625000E-01 9.125000E-01 -7.705345E-01
2.062500E-01 9.187500E-01 -7.083435E-01
2.125000E-01 9.625000E-01 -7.154936E-01
1.687500E-01 9.562500E-01 -7.848320E-01
0.000000E+00 7.500000E-01 -6.507388E-01
6.250000E-02 7.500000E-01 -6.370526E-01
1.250000E-01 7.500000E-01 -6.011758E-01
1.250000E-01 8.125000E-01 -7.057485E-01
0.000000E+00 8.125000E-01 -7.637772E-01
3.750000E-02 7.875000E-01 -7.154936E-01
8.125000E-02 7.937500E-01 -7.083435E-01
8.750000E-02 8.375000E-01 -7.705345E-01
4.375000E-02 8.312500E-01 -7.848320E-01
1.875000E-01 7.500000E-01 -5.402298E-01
2.500000E-01 7.500000E-01 -4.599664E-01
2.500000E-01 8.125000E-01 -5.402298E-01
1.625000E-01 7.875000E-01 -6.287282E-01
2.062500E-01 7.937500E-01 -5.834973E-01
2.125000E-01 8.375000E-01 -6.287282E-01
1.687500E-01 8.312500E-01 -6.834093E-01
3.125000E-01 8.750000E-01 -4.715506E-01
3.750000E-01 8.750000E-01 -3.251206E-01
3.750000E-01 9.375000E-01 -3.446485E-01
3.750000E-01 1.000000E+00 -3.519272E-01
3.125000E-01 1.000000E+00 -5.101806E-01
2.875000E-01 9.125000E-01 -5.466758E-01
3.312500E-01 9.187500E-01 -4.489841E-01
3.375000E-01 9.625000E-01 -4.450124E-01
2.937500E-01 9.562500E-01 -5.488845E-01
4.375000E-01 8.750000E-01 -1.655395E-01
5.000000E-01 8.750000E-01 4.578749E-04
5.000000E-01 9.375000E-01 2.449368E-04
5.000000E-01 1.000000E+00 4.793193E-04
4.375000E-01 1.000000E+00 -1.789064E-01
4.125000E-01 9.125000E-01 -2.395778E-01
4.562500E-01 9.187500E-01 -1.212535E-01
4.625000E-01 9.625000E-01 -1.067688E-01
4.187500E-01 9.562500E-01 -2.293688E-01
3.125000E-01 7.500000E-01 -3.610945E-01
3.750000E-01 7.500000E-01 -2.486777E-01
3.750000E-01 8.125000E-01 -2.924247E-01
2.875000E-01 7.875000E-01 -4.461779E-01
3.312500E-01 7.937500E-01 -3.697656E-01
3.375000E-01 8.375000E-01 -3.911649E-01
2.937500E-01 8.312500E-01 -4.778936E-01
4.375000E-01 7.500000E-01 -1.269395E-01
5.000000E-01 7.500000E-01 5.125215E-04
5.000000E-01 8.125000E-01 -6.574421E-05
4.125000E-01 7.875000E-01 -1.956584E-01
4.562500E-01 7.937500E-01 -9.970168E-02
4.625000E-01 8.375000E-01 -9.401884E-02
4.187500E-01 8.312500E-01 -1.995894E-01
0.000000E+00 6.250000E-01 -3.519272E-01
6.250000E-02 6.250000E-01 -3.446485E-01
1.250000E-01 6.250000E-01 -3.251206E-01
1.250000E-01 6.875000E-01 -4.715506E-01
0.000000E+00 6.875000E-01 -5.101806E-01
3.750000E-02 6.625000E-01 -4.450124E-01
8.125000E-02 6.687500E-01 -4.489841E-01
8.750000E-02 7.125000E-01 -5.466758E-01
4.375000E-02 7.062500E-01 -5.488845E-01
1.875000E-01 6.250000E-01 -2.924247E-01
2.500000E-01 6.250000E-01 -2.486777E-01
2.500000E-01 6.875000E-01 -3.610945E-01
1.625000E-01 6.625000E-01 -3.911649E-01
2.062500E-01 6.687500E-01 -3.697656E-01
2.125000E-01 7.125000E-01 -4.461779E-01
1.687500E-01 7.062500E-01 -4.778936E-01
0.000000E+00 5.000000E-01 4.793193E-04
6.250000E-02 5.000000E-01 2.449368E-04
1.250000E-01 5.000000E-01 4.578749E-04
1.250000E-01 5.625000E-01 -1.655395E-01
0.000000E+00 5.625000E-01 -1.789064E-01
3.750000E-02 5.375000E-01 -1.067688E-01
8.125000E-02 5.437500E-01 -1.212535E-01
8.750000E-02 5.875000E-01 -2.395778E-01
4.375000E-02 5.812500E-01 -2.293688E-01
1.875000E-01 5.000000E-01 -6.574421E-05
2.500000E-01 5.000000E-01 5.125215E-04
2.500000E-01 5.625000E-01 -1.269395E-01
1.625000E-01 5.375000E-01 -9.401884E-02
2.062500E-01 5.437500E-01 -9.970168E-02
2.125000E-01 5.875000E-01 -1.956584E-01
1.687500E-01 5.812500E-01 -1.995894E-01
3.125000E-01 6.250000E-01 -1.956040E-01
3.750000E-01 6.250000E-01 -1.343102E-01
3.750000E-01 6.875000E-01 -1.956040E-01
2.875000E-01 6.625000E-01 -2.776893E-01
3.312500E-01 6.687500E-01 -2.341843E-01
3.375000E-01 7.125000E-01 -2.776893E-01
2.937500E-01 7.062500E-01 -3.340787E-01
4.375000E-01 6.250000E-01 -6.894608E-02
5.000000E-01 6.250000E-01 5.581419E-04
5.000000E-01 6.875000E-01 -2.856096E-04
4.125000E-01 6.625000E-01 -1.218797E-01
4.562500E-01 6.687500E-01 -6.289697E-02
4.625000E-01 7.125000E-01 -6.687612E-02
4.187500E-01 7.062500E-01 -1.393498E-01
3.125000E-01 5.000000E-01 -2.856096E-04
3.750000E-01 5.000000E-01 5.581419E-04
3.750000E-01 5.625000E-01 -6.894608E-02
2.875000E-01 5.375000E-01 -6.687612E-02
3.312500E-01 5.437500E-01 -6.289697E-02
3.375000E-01 5.875000E-01 -1.218797E-01
2.937500E-01 5.812500E-01 -1.393498E-01
4.375000E-01 5.000000E-01 -4.002477E-04
5.000000E-01 5.000000E-01 5.755645E-04
5.000000E-01 5.625000E-01 -4.002477E-04
4.125000E-01 5.375000E-01 -2.948802E-02
4.562500E-01 5.437500E-01 -1.645710E-02
4.625000E-01 5.875000E-01 -2.948802E-02
4.187500E-01 5.812500E-01 -5.783315E-02
5.625000E-01 8.750000E-01 1.657018E-01
6.250000E-01 8.750000E-01 3.259956E-01
6.250000E-01 9.375000E-01 3.451258E-01
6.250000E-01 1.000000E+00 3.528362E-01
5.625000E-01 1.000000E+00 1.796267E-01
5.375000E-01 9.125000E-01 1.040181E-01
5.812500E-01 9.187500E-01 2.249623E-01
5.875000E-01 9.625000E-01 2.477528E-01
5.437500E-01 9.562500E-01 1.250880E-01
6.875000E-01 8.750000E-01 4.717449E-01
7.500000E-01 8.750000E-01 6.019299E-01
7.500000E-01 9.375000E-01 6.374840E-01
7.500000E-01 1.000000E+00 6.514941E-01
6.875000E-01 1.000000E+00 5.108354E-01
6.625000E-01 9.125000E-01 4.318040E-01
7.062500E-01 9.187500E-01 5.369536E-01
7.125000E-01 9.625000E-01 5.645776E-01
6.687500E-01 9.562500E-01 4.605248E-01
5.625000E-01 7.500000E-01 1.265816E-01
6.250000E-01 7.500000E-01 2.496650E-01
6.250000E-01 8.125000E-01 2.923377E-01
5.375000E-01 7.875000E-01 8.468565E-02
5.812500E-01 7.937500E-01 1.855773E-01
5.875000E-01 8.375000E-01 2.174728E-01
5.437500E-01 8.312500E-01 1.091330E-01
6.875000E-01 7.500000E-01 3.608726E-01
7.500000E-01 7.500000E-01 4.608509E-01
7.500000E-01 8.125000E-01 5.402704E-01
6.625000E-01 7.875000E-01 3.521740E-01
7.062500E-01 7.937500E-01 4.426404E-01
7.125000E-01 8.375000E-01 4.958880E-01
6.687500E-01 8.312500E-01 4.012736E-01
8.125000E-01 8.750000E-01 7.059931E-01
8.750000E-01 8.750000E-01 7.862475E-01
8.750000E-01 9.375000E-01 8.327884E-01
8.750000E-01 1.000000E+00 8.509521E-01
8.125000E-01 1.000000E+00 7.642813E-01
7.875000E-01 9.125000E-01 6.938707E-01
8.312500E-01 9.187500E-01 7.672108E-01
8.375000E-01 9.625000E-01 7.954534E-01
7.937500E-01 9.562500E-01 7.258637E-01
9.375000E-01 8.750000E-01 8.327884E-01
1.000000E+00 8.750000E-01 8.509521E-01
1.000000E+00 9.375000E-01 9.013019E-01
1.000000E+00 1.000000E+00 9.205248E-01
9.375000E-01 1.000000E+00 9.013019E-01
9.125000E-01 9.125000E-01 8.503042E-01
9.562500E-01 9.187500E-01 8.806630E-01
9.625000E-01 9.625000E-01 9.051437E-01
9.187500E-01 9.562500E-01 8.806630E-01
8.125000E-01 7.500000E-01 5.402704E-01
8.750000E-01 7.500000E-01 6.019299E-01
8.750000E-01 8.125000E-01 7.059931E-01
7.875000E-01 7.875000E-01 5.660865E-01
8.312500E-01 7.937500E-01 6.323564E-01
8.375000E-01 8.375000E-01 6.988409E-01
7.937500E-01 8.312500E-01 6.323564E-01
9.375000E-01 7.500000E-01 6.374840E-01
1.000000E+00 7.500000E-01 6.514941E-01
1.000000E+00 8.125000E-01 7.642813E-01
9.125000E-01 7.875000E-01 6.938707E-01
9.562500E-01 7.937500E-01 7.258637E-01
9.625000E-01 8.375000E-01 7.954534E-01
9.187500E-01 8.312500E-01 7.672108E-01
5.625000E-01 6.250000E-01 6.825856E-02
6.250000E-01 6.250000E-01 1.353910E-01
6.250000E-01 6.875000E-01 1.951218E-01
5.375000E-01 6.625000E-01 5.253401E-02
5.812500E-01 6.687500E-01 1.180131E-01
5.875000E-01 7.125000E-01 1.541622E-01
5.437500E-01 7.062500E-01 7.663923E-02
6.875000E-01 6.250000E-01 1.951218E-01
7.500000E-01 6.250000E-01 2.496650E-01
7.500000E-01 6.875000E-01 3.608726E-01
6.625000E-01 6.625000E-01 2.189975E-01
7.062500E-01 6.687500E-01 2.810050E-01
7.125000E-01 7.125000E-01 3.517756E-01
6.687500E-01 7.062500E-01 2.810050E-01
5.625000E-01 5.000000E-01 -4.002477E-04
6.250000E-01 5.000000E-01 5.581419E-04
6.250000E-01 5.625000E-01 6.825856E-02
5.375000E-01 5.375000E-01 1.244380E-02
5.812500E-01 5.437500E-01 3.254108E-02
5.875000E-01 5.875000E-01 6.744444E-02
5.437500E-01 5.812500E-01 3.254108E-02
6.875000E-01 5.000000E-01 -2.856096E-04
7.500000E-01 5.000000E-01 5.125215E-04
7.500000E-01 5.625000E-01 1.265816E-01
6.625000E-01 5.375000E-01 5.253401E-02
7.062500E-01 5.437500E-01 7.663923E-02
7.125000E-01 5.875000E-01 1.541622E-01
6.687500E-01 5.812500E-01 1.180131E-01
8.125000E-01 6.250000E-01 2.923377E-01
8.750000E-01 6.250000E-01 3.259956E-01
8.750000E-01 6.875000E-01 4.717449E-01
7.875000E-01 6.625000E-01 3.521740E-01
8.312500E-01 6.687500E-01 4.012736E-01
8.375000E-01 7.125000E-01 4.958880E-01
7.937500E-01 7.062500E-01 4.426404E-01
9.375000E-01 6.250000E-01 3.451258E-01
1.000000E+00 6.250000E-01 3.528362E-01
1.000000E+00 6.875000E-01 5.108354E-01
9.125000E-01 6.625000E-01 4.318040E-01
9.562500E-01 6.687500E-01 4.605248E-01
9.625000E-01 7.125000E-01 5.645776E-01
9.187500E-01 7.062500E-01 5.369536E-01
8.125000E-01 5.000000E-01 -6.574421E-05
8.750000E-01 5.000000E-01 4.578749E-04
8.750000E-01 5.625000E-01 1.657018E-01
7.875000E-01 5.375000E-01 8.468565E-02
8.312500E-01 5.437500E-01 1.091330E-01
8.375000E-01 5.875000E-01 2.174728E-01
7.937500E-01 5.812500E-01 1.855773E-01
9.375000E-01 5.000000E-01 2.449368E-04
1.000000E+00 5.000000E-01 4.793193E-04
1.000000E+00 5.625000E-01 1.796267E-01
9.125000E-01 5.375000E-01 1.040181E-01
9.562500E-01 5.437500E-01 1.250880E-01
9.625000E-01 5.875000E-01 2.477528E-01
9.187500E-01 5.812500E-01 2.249623E-01
0.000000E+00 3.750000E-01 3.528362E-01
6.250000E-02 3.750000E-01 3.451258E-01
[...]
CELL_DATA 896
SCALARS sol float 1
LOOKUP_TABLE default
-8.533503E-01
-8.564734E-01
-8.762491E-01
-8.226011E-01
-8.794345E-01
-8.260087E-01
-8.932028E-01
-7.997020E-01
-7.959470E-01
-8.794345E-01
-8.260087E-01
-7.962315E-01
-9.078766E-01
-7.547009E-01
-7.545700E-01
-8.932028E-01
-8.564734E-01
-7.962315E-01
-7.539895E-01
-9.078766E-01
-7.362230E-01
-7.100032E-01
-7.282089E-01
-8.762491E-01
-8.533503E-01
-7.539895E-01
-7.959470E-01
-7.249478E-01
-6.869632E-01
-6.677617E-01
-6.717559E-01
-8.226011E-01
-7.282089E-01
-7.249478E-01
-7.545700E-01
-6.726287E-01
-6.488573E-01
-6.122253E-01
-6.452175E-01
-7.997020E-01
-6.717559E-01
-6.726287E-01
-7.362230E-01
-6.318783E-01
-5.949681E-01
-5.699346E-01
-5.775376E-01
-5.900446E-01
-7.547009E-01
-6.488573E-01
-6.452175E-01
-6.318783E-01
-6.869632E-01
-5.841518E-01
-5.398007E-01
-5.013591E-01
-5.148481E-01
-5.397664E-01
-7.100032E-01
-5.949681E-01
-5.900446E-01
-5.841518E-01
-6.677617E-01
-5.278978E-01
-4.890702E-01
-5.168733E-01
-4.809603E-01
-4.357067E-01
-4.881004E-01
-5.398007E-01
-5.775376E-01
-5.397664E-01
-5.278978E-01
-6.122253E-01
-4.821247E-01
-4.152184E-01
-4.468697E-01
-4.128817E-01
-3.805293E-01
-4.312790E-01
-4.890702E-01
-5.168733E-01
-5.148481E-01
-4.881004E-01
-4.821247E-01
-5.699346E-01
-4.224129E-01
-3.729177E-01
-3.959454E-01
-4.129414E-01
-3.086481E-01
-3.923460E-01
-4.152184E-01
-4.468697E-01
-4.809603E-01
-4.312790E-01
-4.224129E-01
-5.013591E-01
-3.850465E-01
-3.031156E-01
-3.362367E-01
-3.511184E-01
-2.534008E-01
-2.711983E-01
-3.265126E-01
-3.729177E-01
-3.959454E-01
-4.129414E-01
-4.128817E-01
-3.923460E-01
-3.850465E-01
-4.357067E-01
-3.242875E-01
-2.434126E-01
-2.723782E-01
-3.036227E-01
-1.716813E-01
-1.967334E-01
-2.958205E-01
-3.031156E-01
-3.362367E-01
-3.511184E-01
-3.805293E-01
-3.265126E-01
-3.242875E-01
-2.819841E-01
-2.300832E-01
-1.754569E-01
-2.292242E-01
-2.455869E-01
-1.524637E-01
-9.506529E-02
-2.406570E-01
-2.434126E-01
-2.711983E-01
-2.723782E-01
-3.036227E-01
-3.086481E-01
-2.958205E-01
-2.819841E-01
-2.358258E-01
-1.530493E-01
-9.544505E-02
-1.649832E-01
-1.904252E-01
-7.592577E-02
-3.534817E-02
-1.945438E-01
-1.754569E-01
-2.300832E-01
-1.967334E-01
-2.292242E-01
-2.455869E-01
-2.534008E-01
-2.406570E-01
-2.358258E-01
-1.880328E-01
-1.311033E-01
-8.636683E-02
-4.018355E-02
-1.407665E-01
-1.716557E-01
4.193743E-02
-1.522778E-01
-9.544505E-02
-1.530493E-01
-1.524637E-01
-1.649832E-01
-1.904252E-01
-1.716813E-01
-1.945438E-01
-1.880328E-01
-1.505979E-01
-6.459542E-02
-3.120890E-02
3.490696E-02
-7.537622E-02
-1.110551E-01
1.017314E-01
7.645035E-02
-1.080421E-01
-4.018355E-02
-8.636683E-02
-1.311033E-01
-7.592577E-02
-1.407665E-01
-1.716557E-01
-9.506529E-02
-1.522778E-01
-1.505979E-01
-1.083786E-01
-3.308497E-02
3.650839E-02
9.005924E-02
-6.443437E-02
-8.970762E-02
1.841559E-01
1.513561E-01
-8.457424E-02
3.490696E-02
-3.120890E-02
-6.459542E-02
-3.534817E-02
-7.537622E-02
-1.110551E-01
-1.080421E-01
-1.083786E-01
-8.702980E-02
2.837747E-02
9.176422E-02
6.458432E-02
1.648940E-01
-2.221640E-02
-4.335290E-02
1.992677E-01
2.600719E-01
-4.376164E-02
9.005924E-02
7.645035E-02
3.650839E-02
-3.308497E-02
4.193743E-02
-6.443437E-02
-8.970762E-02
-8.457424E-02
-8.702980E-02
-5.208908E-02
7.059326E-02
1.641025E-01
1.264653E-01
2.388865E-01
2.562205E-02
-2.087481E-02
2.726136E-01
3.152383E-01
-3.262532E-02
1.648940E-01
9.176422E-02
1.513561E-01
6.458432E-02
2.837747E-02
1.017314E-01
-2.221640E-02
-4.335290E-02
-4.376164E-02
-5.208908E-02
-3.459276E-02
6.791112E-02
1.322815E-01
1.707277E-01
2.363900E-01
2.986945E-01
4.296254E-02
1.760218E-02
3.861623E-01
-9.776708E-03
2.388865E-01
1.641025E-01
1.992677E-01
1.264653E-01
7.059326E-02
1.841559E-01
2.562205E-02
-2.087481E-02
-3.262532E-02
-3.459276E-02
-1.544846E-02
1.191277E-01
1.872746E-01
2.317959E-01
2.786020E-01
3.676418E-01
8.239544E-02
4.045024E-02
4.413988E-01
4.124849E-01
1.089966E-02
2.986945E-01
2.363900E-01
1.707277E-01
2.726136E-01
1.322815E-01
6.791112E-02
2.600719E-01
4.296254E-02
1.760218E-02
-9.776708E-03
-1.544846E-02
-5.427263E-03
1.162715E-01
1.768029E-01
2.425267E-01
3.398690E-01
4.098481E-01
7.960188E-02
3.378592E-02
5.119793E-01
4.764275E-01
1.486154E-02
3.676418E-01
2.786020E-01
2.317959E-01
3.152383E-01
1.872746E-01
1.191277E-01
8.239544E-02
4.045024E-02
1.089966E-02
-5.427263E-03
4.206373E-03
1.557657E-01
1.996497E-01
2.980589E-01
3.996713E-01
3.485951E-01
4.801675E-01
1.072209E-01
5.608136E-02
5.206854E-01
5.756357E-01
2.584198E-02
4.098481E-01
4.124849E-01
3.398690E-01
2.425267E-01
3.861623E-01
1.768029E-01
1.162715E-01
7.960188E-02
3.378592E-02
1.486154E-02
4.206373E-03
4.206373E-03
1.495086E-01
2.419306E-01
3.209039E-01
4.563022E-01
3.986960E-01
5.368761E-01
9.036465E-02
4.417553E-02
5.796717E-01
6.178519E-01
1.486154E-02
4.801675E-01
3.996713E-01
4.764275E-01
3.485951E-01
2.980589E-01
4.413988E-01
1.996497E-01
1.557657E-01
1.072209E-01
5.608136E-02
2.584198E-02
4.206373E-03
-5.427263E-03
1.831701E-01
2.971809E-01
2.317081E-01
3.852290E-01
4.466007E-01
5.231876E-01
5.921225E-01
9.036465E-02
5.608136E-02
6.716139E-01
1.089966E-02
5.368761E-01
4.563022E-01
5.206854E-01
3.986960E-01
3.209039E-01
5.119793E-01
2.419306E-01
1.495086E-01
9.036465E-02
4.417553E-02
1.486154E-02
-5.427263E-03
-1.544846E-02
1.831701E-01
3.312178E-01
2.603358E-01
4.214546E-01
4.929329E-01
5.460294E-01
6.444282E-01
1.072209E-01
3.378592E-02
7.138797E-01
6.857395E-01
-9.776708E-03
5.921225E-01
5.231876E-01
4.466007E-01
5.796717E-01
3.852290E-01
2.971809E-01
5.756357E-01
2.317081E-01
1.831701E-01
9.036465E-02
5.608136E-02
1.089966E-02
-1.544846E-02
-3.459276E-02
1.495086E-01
2.317081E-01
3.045952E-01
3.911664E-01
4.812539E-01
5.915189E-01
6.672646E-01
7.960188E-02
4.045024E-02
7.618661E-01
7.289818E-01
-3.262532E-02
6.444282E-01
5.460294E-01
4.929329E-01
6.178519E-01
4.214546E-01
3.312178E-01
2.603358E-01
1.831701E-01
1.072209E-01
3.378592E-02
-9.776708E-03
-3.459276E-02
-5.208908E-02
1.557657E-01
2.419306E-01
3.312178E-01
3.911664E-01
5.224026E-01
6.467598E-01
5.795711E-01
7.223582E-01
8.239544E-02
1.760218E-02
7.628426E-01
8.035622E-01
-4.376164E-02
6.672646E-01
6.857395E-01
5.915189E-01
4.812539E-01
6.716139E-01
3.911664E-01
3.045952E-01
2.317081E-01
1.495086E-01
7.960188E-02
4.045024E-02
-3.262532E-02
-5.208908E-02
-8.702980E-02
1.162715E-01
1.996497E-01
2.971809E-01
4.214546E-01
5.224026E-01
6.790635E-01
6.102664E-01
7.531505E-01
4.296254E-02
-2.087481E-02
7.984842E-01
8.263980E-01
-8.457424E-02
7.223582E-01
6.467598E-01
7.289818E-01
5.795711E-01
5.224026E-01
7.138797E-01
3.911664E-01
3.312178E-01
2.419306E-01
1.557657E-01
8.239544E-02
1.760218E-02
-4.376164E-02
-8.702980E-02
-1.083786E-01
1.191277E-01
1.768029E-01
3.209039E-01
4.812539E-01
3.852290E-01
5.795711E-01
6.545179E-01
7.303605E-01
7.954156E-01
2.562205E-02
-4.335290E-02
8.548012E-01
-1.080421E-01
7.531505E-01
6.790635E-01
7.628426E-01
6.102664E-01
5.224026E-01
7.618661E-01
4.214546E-01
2.971809E-01
1.996497E-01
1.162715E-01
4.296254E-02
-2.087481E-02
-8.457424E-02
-1.083786E-01
-1.505979E-01
6.791112E-02
1.872746E-01
2.980589E-01
4.929329E-01
3.986960E-01
5.915189E-01
6.790635E-01
7.303605E-01
8.231134E-01
-2.221640E-02
-8.970762E-02
8.776390E-01
8.545852E-01
-1.522778E-01
7.954156E-01
7.303605E-01
6.545179E-01
7.984842E-01
5.795711E-01
4.812539E-01
8.035622E-01
3.852290E-01
3.209039E-01
1.768029E-01
1.191277E-01
2.562205E-02
-4.335290E-02
-1.080421E-01
-1.505979E-01
-1.880328E-01
7.059326E-02
2.425267E-01
1.322815E-01
3.485951E-01
4.466007E-01
5.460294E-01
6.467598E-01
7.531505E-01
8.231134E-01
-6.443437E-02
-1.110551E-01
8.957029E-01
8.705434E-01
-1.945438E-01
8.231134E-01
7.303605E-01
6.790635E-01
8.263980E-01
5.915189E-01
4.929329E-01
3.986960E-01
2.980589E-01
1.872746E-01
6.791112E-02
-2.221640E-02
-8.970762E-02
-1.522778E-01
-1.880328E-01
-2.358258E-01
2.837747E-02
2.317959E-01
1.264653E-01
3.398690E-01
4.563022E-01
5.231876E-01
6.672646E-01
7.954156E-01
7.223582E-01
8.545852E-01
-7.537622E-02
-1.716557E-01
8.888232E-01
9.089901E-01
-2.406570E-01
8.231134E-01
8.545852E-01
7.531505E-01
6.467598E-01
8.548012E-01
5.460294E-01
4.466007E-01
3.485951E-01
2.425267E-01
1.322815E-01
7.059326E-02
-6.443437E-02
-1.110551E-01
-1.945438E-01
-2.358258E-01
-2.819841E-01
6.458432E-02
-3.308497E-02
1.707277E-01
2.786020E-01
3.996713E-01
5.368761E-01
6.444282E-01
7.984842E-01
7.289818E-01
8.548012E-01
-1.407665E-01
-1.904252E-01
8.957029E-01
9.089901E-01
-2.958205E-01
8.545852E-01
7.954156E-01
8.705434E-01
7.223582E-01
6.672646E-01
8.776390E-01
5.231876E-01
4.563022E-01
3.398690E-01
2.317959E-01
1.264653E-01
2.837747E-02
-7.537622E-02
-1.716557E-01
-2.406570E-01
-2.819841E-01
-3.242875E-01
3.650839E-02
-6.459542E-02
1.641025E-01
2.363900E-01
4.098481E-01
5.921225E-01
4.801675E-01
6.857395E-01
7.628426E-01
8.263980E-01
8.776390E-01
-1.649832E-01
-2.455869E-01
-3.265126E-01
8.548012E-01
7.984842E-01
8.888232E-01
7.289818E-01
6.444282E-01
8.957029E-01
5.368761E-01
3.996713E-01
2.786020E-01
1.707277E-01
6.458432E-02
-3.308497E-02
-1.407665E-01
-1.904252E-01
-2.958205E-01
-3.242875E-01
-3.850465E-01
9.176422E-02
-3.120890E-02
-1.311033E-01
2.388865E-01
3.676418E-01
5.796717E-01
4.764275E-01
6.716139E-01
7.618661E-01
8.035622E-01
-2.292242E-01
-3.036227E-01
-3.923460E-01
8.776390E-01
8.263980E-01
7.628426E-01
8.957029E-01
6.857395E-01
5.921225E-01
9.089901E-01
4.801675E-01
4.098481E-01
2.363900E-01
1.641025E-01
3.650839E-02
-6.459542E-02
-1.649832E-01
-2.455869E-01
-3.265126E-01
-3.850465E-01
-4.224129E-01
9.005924E-02
-8.636683E-02
-1.530493E-01
2.986945E-01
1.648940E-01
4.124849E-01
5.206854E-01
6.178519E-01
7.138797E-01
-2.723782E-01
-3.511184E-01
-4.312790E-01
8.035622E-01
7.618661E-01
9.089901E-01
6.716139E-01
5.796717E-01
4.764275E-01
3.676418E-01
2.388865E-01
9.176422E-02
-3.120890E-02
-1.311033E-01
-2.292242E-01
-3.036227E-01
-3.923460E-01
-4.224129E-01
-4.821247E-01
3.490696E-02
-9.544505E-02
-2.300832E-01
2.726136E-01
1.513561E-01
3.861623E-01
5.119793E-01
5.756357E-01
-3.362367E-01
-4.129414E-01
-4.881004E-01
7.138797E-01
6.178519E-01
5.206854E-01
4.124849E-01
2.986945E-01
1.648940E-01
9.005924E-02
-8.636683E-02
-1.530493E-01
-2.723782E-01
-3.511184E-01
-4.312790E-01
-4.821247E-01
-5.278978E-01
7.645035E-02
-4.018355E-02
-1.754569E-01
-2.434126E-01
1.992677E-01
3.152383E-01
4.413988E-01
-3.959454E-01
-4.468697E-01
-5.397664E-01
5.756357E-01
5.119793E-01
3.861623E-01
2.726136E-01
1.513561E-01
3.490696E-02
-9.544505E-02
-2.300832E-01
-3.362367E-01
-4.129414E-01
-4.881004E-01
-5.278978E-01
-5.841518E-01
4.193743E-02
-7.592577E-02
-1.967334E-01
-3.031156E-01
1.841559E-01
2.600719E-01
-4.152184E-01
-5.168733E-01
-5.900446E-01
4.413988E-01
3.152383E-01
1.992677E-01
7.645035E-02
-4.018355E-02
-1.754569E-01
-2.434126E-01
-3.959454E-01
-4.468697E-01
-5.397664E-01
-5.841518E-01
-6.318783E-01
1.017314E-01
-3.534817E-02
-1.524637E-01
-2.711983E-01
-3.729177E-01
-4.890702E-01
-5.398007E-01
-6.452175E-01
2.600719E-01
1.841559E-01
4.193743E-02
-7.592577E-02
-1.967334E-01
-3.031156E-01
-4.152184E-01
-5.168733E-01
-5.900446E-01
-6.318783E-01
-6.726287E-01
-9.506529E-02
-1.716813E-01
-3.086481E-01
-4.128817E-01
-5.148481E-01
-5.949681E-01
-6.717559E-01
1.017314E-01
-3.534817E-02
-1.524637E-01
-2.711983E-01
-3.729177E-01
-4.890702E-01
-5.398007E-01
-6.452175E-01
-6.726287E-01
-7.249478E-01
-2.534008E-01
-3.805293E-01
-4.809603E-01
-5.775376E-01
-6.488573E-01
-7.282089E-01
-9.506529E-02
-1.716813E-01
-3.086481E-01
-4.128817E-01
-5.148481E-01
-5.949681E-01
-6.717559E-01
-7.249478E-01
-7.539895E-01
-4.357067E-01
-5.013591E-01
-6.122253E-01
-6.869632E-01
-7.545700E-01
-2.534008E-01
-3.805293E-01
-4.809603E-01
-5.775376E-01
-6.488573E-01
-7.282089E-01
-7.539895E-01
-7.962315E-01
-5.699346E-01
-6.677617E-01
-7.362230E-01
-7.959470E-01
-4.357067E-01
-5.013591E-01
-6.122253E-01
-6.869632E-01
-7.545700E-01
-7.962315E-01
-8.260087E-01
-7.100032E-01
-7.547009E-01
-8.226011E-01
-5.699346E-01
-6.677617E-01
-7.362230E-01
-7.959470E-01
-8.260087E-01
-8.564734E-01
-7.997020E-01
-8.533503E-01
-7.100032E-01
-7.547009E-01
-8.226011E-01
-8.564734E-01
-8.794345E-01
-8.762491E-01
-7.997020E-01
-8.533503E-01
-8.794345E-01
-8.932028E-01
-8.762491E-01
-8.932028E-01
-9.078766E-01
-9.078766E-01
