# vtk DataFile Version 2.0
Grille
ASCII
DATASET POLYDATA
POINTS 481 float
0.000000E+00 8.750000E-01 -5.321079E-01
6.250000E-02 8.750000E-01 -5.218836E-01
1.250000E-01 8.750000E-01 -4.916036E-01
1.250000E-01 9.375000E-01 -5.218836E-01
1.250000E-01 1.000000E+00 -5.321079E-01
6.250000E-02 1.000000E+00 -5.648827E-01
0.000000E+00 1.000000E+00 -5.759494E-01
0.000000E+00 9.375000E-01 -5.648827E-01
3.750000E-02 9.125000E-01 -5.504832E-01
8.125000E-02 9.187500E-01 -5.392315E-01
8.750000E-02 9.625000E-01 -5.504832E-01
4.375000E-02 9.562500E-01 -5.651375E-01
1.875000E-01 8.750000E-01 -4.424315E-01
2.500000E-01 8.750000E-01 -3.762571E-01
2.500000E-01 9.375000E-01 -3.994324E-01
2.500000E-01 1.000000E+00 -4.072577E-01
1.875000E-01 1.000000E+00 -4.788844E-01
1.625000E-01 9.125000E-01 -4.836468E-01
2.062500E-01 9.187500E-01 -4.443373E-01
2.125000E-01 9.625000E-01 -4.491677E-01
1.687500E-01 9.562500E-01 -4.922054E-01
0.000000E+00 7.500000E-01 -4.072577E-01
6.250000E-02 7.500000E-01 -3.994324E-01
1.250000E-01 7.500000E-01 -3.762571E-01
1.250000E-01 8.125000E-01 -4.424315E-01
0.000000E+00 8.125000E-01 -4.788844E-01
3.750000E-02 7.875000E-01 -4.491677E-01
8.125000E-02 7.937500E-01 -4.443373E-01
8.750000E-02 8.375000E-01 -4.836468E-01
4.375000E-02 8.312500E-01 -4.922054E-01
1.875000E-01 7.500000E-01 -3.386224E-01
2.500000E-01 7.500000E-01 -2.879747E-01
2.500000E-01 8.125000E-01 -3.386224E-01
1.625000E-01 7.875000E-01 -3.946324E-01
2.062500E-01 7.937500E-01 -3.661427E-01
2.125000E-01 8.375000E-01 -3.946324E-01
1.687500E-01 8.312500E-01 -4.286853E-01
3.125000E-01 8.750000E-01 -2.956233E-01
3.750000E-01 8.750000E-01 -2.036289E-01
3.750000E-01 9.375000E-01 -2.161713E-01
3.750000E-01 1.000000E+00 -2.204063E-01
3.125000E-01 1.000000E+00 -3.199804E-01
2.875000E-01 9.125000E-01 -3.431796E-01
3.312500E-01 9.187500E-01 -2.817969E-01
3.375000E-01 9.625000E-01 -2.794704E-01
2.937500E-01 9.562500E-01 -3.443394E-01
4.375000E-01 8.750000E-01 -1.038091E-01
5.000000E-01 8.750000E-01 -3.258221E-17
5.000000E-01 9.375000E-01 -3.458909E-17
5.000000E-01 1.000000E+00 -3.526673E-17
4.375000E-01 1.000000E+00 -1.123622E-01
4.125000E-01 9.125000E-01 -1.504664E-01
4.562500E-01 9.187500E-01 -7.635535E-02
4.625000E-01 9.625000E-01 -6.722636E-02
4.187500E-01 9.562500E-01 -1.440510E-01
3.125000E-01 7.500000E-01 -2.262603E-01
3.750000E-01 7.500000E-01 -1.558508E-01
3.750000E-01 8.125000E-01 -1.832611E-01
2.875000E-01 7.875000E-01 -2.800180E-01
3.312500E-01 7.937500E-01 -2.322061E-01
3.375000E-01 8.375000E-01 -2.455388E-01
2.937500E-01 8.312500E-01 -2.999017E-01
4.375000E-01 7.500000E-01 -7.945205E-02
5.000000E-01 7.500000E-01 -2.493734E-17
5.000000E-01 8.125000E-01 -2.932322E-17
4.125000E-01 7.875000E-01 -1.227733E-01
4.562500E-01 7.937500E-01 -6.291831E-02
4.625000E-01 8.375000E-01 -5.906414E-02
4.187500E-01 8.312500E-01 -1.254609E-01
0.000000E+00 6.250000E-01 -2.204063E-01
6.250000E-02 6.250000E-01 -2.161713E-01
1.250000E-01 6.250000E-01 -2.036289E-01
1.250000E-01 6.875000E-01 -2.956233E-01
0.000000E+00 6.875000E-01 -3.199804E-01
3.750000E-02 6.625000E-01 -2.794704E-01
8.125000E-02 6.687500E-01 -2.817969E-01
8.750000E-02 7.125000E-01 -3.431796E-01
4.375000E-02 7.062500E-01 -3.443394E-01
1.875000E-01 6.250000E-01 -1.832611E-01
2.500000E-01 6.250000E-01 -1.558508E-01
2.500000E-01 6.875000E-01 -2.262603E-01
1.625000E-01 6.625000E-01 -2.455388E-01
2.062500E-01 6.687500E-01 -2.322061E-01
2.125000E-01 7.125000E-01 -2.800180E-01
1.687500E-01 7.062500E-01 -2.999017E-01
0.000000E+00 5.000000E-01 3.526673E-17
6.250000E-02 5.000000E-01 3.458909E-17
1.250000E-01 5.000000E-01 3.258221E-17
1.250000E-01 5.625000E-01 -1.038091E-01
0.000000E+00 5.625000E-01 -1.123622E-01
3.750000E-02 5.375000E-01 -6.722636E-02
8.125000E-02 5.437500E-01 -7.635535E-02
8.750000E-02 5.875000E-01 -1.504664E-01
4.375000E-02 5.812500E-01 -1.440510E-01
1.875000E-01 5.000000E-01 2.932322E-17
2.500000E-01 5.000000E-01 2.493734E-17
2.500000E-01 5.625000E-01 -7.945205E-02
1.625000E-01 5.375000E-01 -5.906414E-02
2.062500E-01 5.437500E-01 -6.291831E-02
2.125000E-01 5.875000E-01 -1.227733E-01
1.687500E-01 5.812500E-01 -1.254609E-01
3.125000E-01 6.250000E-01 -1.224512E-01
3.750000E-01 6.250000E-01 -8.434584E-02
3.750000E-01 6.875000E-01 -1.224512E-01
2.875000E-01 6.625000E-01 -1.742261E-01
3.312500E-01 6.687500E-01 -1.472642E-01
3.375000E-01 7.125000E-01 -1.742261E-01
2.937500E-01 7.062500E-01 -2.098067E-01
4.375000E-01 6.250000E-01 -4.299914E-02
5.000000E-01 6.250000E-01 -1.349599E-17
5.000000E-01 6.875000E-01 -1.959315E-17
4.125000E-01 6.625000E-01 -7.638908E-02
4.562500E-01 6.687500E-01 -3.990253E-02
4.625000E-01 7.125000E-01 -4.190993E-02
4.187500E-01 7.062500E-01 -8.777054E-02
3.125000E-01 5.000000E-01 1.959315E-17
3.750000E-01 5.000000E-01 1.349599E-17
3.750000E-01 5.625000E-01 -4.299914E-02
2.875000E-01 5.375000E-01 -4.190993E-02
3.312500E-01 5.437500E-01 -3.990253E-02
3.375000E-01 5.875000E-01 -7.638908E-02
2.937500E-01 5.812500E-01 -8.777054E-02
4.375000E-01 5.000000E-01 6.880198E-18
5.000000E-01 5.000000E-01 2.159464E-33
5.000000E-01 5.625000E-01 -6.880198E-18
4.125000E-01 5.375000E-01 -1.837532E-02
4.562500E-01 5.437500E-01 -1.081194E-02
4.625000E-01 5.875000E-01 -1.837532E-02
4.187500E-01 5.812500E-01 -3.671793E-02
5.625000E-01 8.750000E-01 1.038091E-01
6.250000E-01 8.750000E-01 2.036289E-01
6.250000E-01 9.375000E-01 2.161713E-01
6.250000E-01 1.000000E+00 2.204063E-01
5.625000E-01 1.000000E+00 1.123622E-01
5.375000E-01 9.125000E-01 6.515398E-02
5.812500E-01 9.187500E-01 1.407106E-01
5.875000E-01 9.625000E-01 1.552523E-01
5.437500E-01 9.562500E-01 7.816799E-02
6.875000E-01 8.750000E-01 2.956233E-01
7.500000E-01 8.750000E-01 3.762571E-01
7.500000E-01 9.375000E-01 3.994324E-01
7.500000E-01 1.000000E+00 4.072577E-01
6.875000E-01 1.000000E+00 3.199804E-01
6.625000E-01 9.125000E-01 2.708552E-01
7.062500E-01 9.187500E-01 3.363546E-01
7.125000E-01 9.625000E-01 3.540952E-01
6.687500E-01 9.562500E-01 2.884866E-01
5.625000E-01 7.500000E-01 7.945205E-02
6.250000E-01 7.500000E-01 1.558508E-01
6.250000E-01 8.125000E-01 1.832611E-01
5.375000E-01 7.875000E-01 5.316250E-02
5.812500E-01 7.937500E-01 1.159483E-01
5.875000E-01 8.375000E-01 1.364025E-01
5.437500E-01 8.312500E-01 6.808025E-02
6.875000E-01 7.500000E-01 2.262603E-01
7.500000E-01 7.500000E-01 2.879747E-01
7.500000E-01 8.125000E-01 3.386224E-01
6.625000E-01 7.875000E-01 2.210048E-01
7.062500E-01 7.937500E-01 2.771628E-01
7.125000E-01 8.375000E-01 3.111031E-01
6.687500E-01 8.312500E-01 2.512568E-01
8.125000E-01 8.750000E-01 4.424315E-01
8.750000E-01 8.750000E-01 4.916036E-01
8.750000E-01 9.375000E-01 5.218836E-01
8.750000E-01 1.000000E+00 5.321079E-01
8.125000E-01 1.000000E+00 4.788844E-01
7.875000E-01 9.125000E-01 4.353212E-01
8.312500E-01 9.187500E-01 4.807916E-01
8.375000E-01 9.625000E-01 4.990304E-01
7.937500E-01 9.562500E-01 4.548857E-01
9.375000E-01 8.750000E-01 5.218836E-01
1.000000E+00 8.750000E-01 5.321079E-01
1.000000E+00 9.375000E-01 5.648827E-01
1.000000E+00 1.000000E+00 5.759494E-01
9.375000E-01 1.000000E+00 5.648827E-01
9.125000E-01 9.125000E-01 5.335135E-01
9.562500E-01 9.187500E-01 5.520326E-01
9.625000E-01 9.625000E-01 5.679927E-01
9.187500E-01 9.562500E-01 5.520326E-01
8.125000E-01 7.500000E-01 3.386224E-01
8.750000E-01 7.500000E-01 3.762571E-01
8.750000E-01 8.125000E-01 4.424315E-01
7.875000E-01 7.875000E-01 3.552011E-01
8.312500E-01 7.937500E-01 3.961818E-01
8.375000E-01 8.375000E-01 4.384411E-01
7.937500E-01 8.312500E-01 3.961818E-01
9.375000E-01 7.500000E-01 3.994324E-01
1.000000E+00 7.500000E-01 4.072577E-01
1.000000E+00 8.125000E-01 4.788844E-01
9.125000E-01 7.875000E-01 4.353212E-01
9.562500E-01 7.937500E-01 4.548857E-01
9.625000E-01 8.375000E-01 4.990304E-01
9.187500E-01 8.312500E-01 4.807916E-01
5.625000E-01 6.250000E-01 4.299914E-02
6.250000E-01 6.250000E-01 8.434584E-02
6.250000E-01 6.875000E-01 1.224512E-01
5.375000E-01 6.625000E-01 3.307751E-02
5.812500E-01 6.687500E-01 7.353390E-02
5.875000E-01 7.125000E-01 9.678665E-02
5.437500E-01 7.062500E-01 4.762792E-02
6.875000E-01 6.250000E-01 1.224512E-01
7.500000E-01 6.250000E-01 1.558508E-01
7.500000E-01 6.875000E-01 2.262603E-01
6.625000E-01 6.625000E-01 1.375083E-01
7.062500E-01 6.687500E-01 1.757755E-01
7.125000E-01 7.125000E-01 2.207484E-01
6.687500E-01 7.062500E-01 1.757755E-01
5.625000E-01 5.000000E-01 -6.880198E-18
6.250000E-01 5.000000E-01 -1.349599E-17
6.250000E-01 5.625000E-01 4.299914E-02
5.375000E-01 5.375000E-01 7.956764E-03
5.812500E-01 5.437500E-01 1.992466E-02
5.875000E-01 5.875000E-01 4.243591E-02
5.437500E-01 5.812500E-01 1.992466E-02
6.875000E-01 5.000000E-01 -1.959315E-17
7.500000E-01 5.000000E-01 -2.493734E-17
7.500000E-01 5.625000E-01 7.945205E-02
6.625000E-01 5.375000E-01 3.307751E-02
7.062500E-01 5.437500E-01 4.762792E-02
7.125000E-01 5.875000E-01 9.678665E-02
6.687500E-01 5.812500E-01 7.353390E-02
8.125000E-01 6.250000E-01 1.832611E-01
8.750000E-01 6.250000E-01 2.036289E-01
8.750000E-01 6.875000E-01 2.956233E-01
7.875000E-01 6.625000E-01 2.210048E-01
8.312500E-01 6.687500E-01 2.512568E-01
8.375000E-01 7.125000E-01 3.111031E-01
7.937500E-01 7.062500E-01 2.771628E-01
9.375000E-01 6.250000E-01 2.161713E-01
1.000000E+00 6.250000E-01 2.204063E-01
1.000000E+00 6.875000E-01 3.199804E-01
9.125000E-01 6.625000E-01 2.708552E-01
9.562500E-01 6.687500E-01 2.884866E-01
9.625000E-01 7.125000E-01 3.540952E-01
9.187500E-01 7.062500E-01 3.363546E-01
8.125000E-01 5.000000E-01 -2.932322E-17
8.750000E-01 5.000000E-01 -3.258221E-17
8.750000E-01 5.625000E-01 1.038091E-01
7.875000E-01 5.375000E-01 5.316250E-02
8.312500E-01 5.437500E-01 6.808025E-02
8.375000E-01 5.875000E-01 1.364025E-01
7.937500E-01 5.812500E-01 1.159483E-01
9.375000E-01 5.000000E-01 -3.458909E-17
1.000000E+00 5.000000E-01 -3.526673E-17
1.000000E+00 5.625000E-01 1.123622E-01
9.125000E-01 5.375000E-01 6.515398E-02
9.562500E-01 5.437500E-01 7.816799E-02
9.625000E-01 5.875000E-01 1.552523E-01
9.187500E-01 5.812500E-01 1.407106E-01
0.000000E+00 3.750000E-01 2.204063E-01
6.250000E-02 3.750000E-01 2.161713E-01
[...]
CELL_DATA 896
SCALARS sol float 1
LOOKUP_TABLE default
-5.348249E-01
-5.371994E-01
-5.491579E-01
-5.153989E-01
-5.516174E-01
-5.175729E-01
-5.601678E-01
-5.010659E-01
-4.992453E-01
-5.516174E-01
-5.175729E-01
-4.990447E-01
-5.686565E-01
-4.734192E-01
-4.733965E-01
-5.601678E-01
-5.371994E-01
-4.990447E-01
-4.725607E-01
-5.686565E-01
-4.619035E-01
-4.451033E-01
-4.568052E-01
-5.491579E-01
-5.348249E-01
-4.725607E-01
-4.992453E-01
-4.542401E-01
-4.309791E-01
-4.186193E-01
-4.210087E-01
-5.153989E-01
-4.568052E-01
-4.542401E-01
-4.733965E-01
-4.219164E-01
-4.066756E-01
-3.836765E-01
-4.044404E-01
-5.010659E-01
-4.210087E-01
-4.219164E-01
-4.619035E-01
-3.964868E-01
-3.729564E-01
-3.571925E-01
-3.623171E-01
-3.698373E-01
-4.734192E-01
-4.066756E-01
-4.044404E-01
-3.964868E-01
-4.309791E-01
-3.664659E-01
-3.383533E-01
-3.145967E-01
-3.231053E-01
-3.382604E-01
-4.451033E-01
-3.729564E-01
-3.698373E-01
-3.664659E-01
-4.186193E-01
-3.309133E-01
-3.068666E-01
-3.239274E-01
-3.018689E-01
-2.732857E-01
-3.061807E-01
-3.383533E-01
-3.623171E-01
-3.382604E-01
-3.309133E-01
-3.836765E-01
-3.022050E-01
-2.603497E-01
-2.803546E-01
-2.591462E-01
-2.386827E-01
-2.707086E-01
-3.068666E-01
-3.239274E-01
-3.231053E-01
-3.061807E-01
-3.022050E-01
-3.571925E-01
-2.647510E-01
-2.338657E-01
-2.482637E-01
-2.592156E-01
-1.935428E-01
-2.461615E-01
-2.603497E-01
-2.803546E-01
-3.018689E-01
-2.707086E-01
-2.647510E-01
-3.145967E-01
-2.413472E-01
-1.900888E-01
-2.108096E-01
-2.203354E-01
-1.589398E-01
-1.702295E-01
-2.047724E-01
-2.338657E-01
-2.482637E-01
-2.592156E-01
-2.591462E-01
-2.461615E-01
-2.413472E-01
-2.732857E-01
-2.034310E-01
-1.526348E-01
-1.707836E-01
-1.904394E-01
-1.078798E-01
-1.236242E-01
-1.854457E-01
-1.900888E-01
-2.108096E-01
-2.203354E-01
-2.386827E-01
-2.047724E-01
-2.034310E-01
-1.770990E-01
-1.442996E-01
-1.102103E-01
-1.438318E-01
-1.539617E-01
-9.587756E-02
-5.986284E-02
-1.508427E-01
-1.526348E-01
-1.702295E-01
-1.707836E-01
-1.904394E-01
-1.935428E-01
-1.854457E-01
-1.770990E-01
-1.479805E-01
-9.611138E-02
-6.005482E-02
-1.037175E-01
-1.193587E-01
-4.786057E-02
-2.240879E-02
-1.220242E-01
-1.102103E-01
-1.442996E-01
-1.236242E-01
-1.438318E-01
-1.539617E-01
-1.589398E-01
-1.508427E-01
-1.479805E-01
-1.180204E-01
-8.248111E-02
-5.429108E-02
-2.545178E-02
-8.838121E-02
-1.076911E-01
2.605600E-02
-9.553693E-02
-6.005482E-02
-9.611138E-02
-9.587756E-02
-1.037175E-01
-1.193587E-01
-1.078798E-01
-1.220242E-01
-1.180204E-01
-9.439537E-02
-4.066082E-02
-1.968805E-02
2.171799E-02
-4.745679E-02
-6.971084E-02
6.351005E-02
4.777399E-02
-6.802071E-02
-2.545178E-02
-5.429108E-02
-8.248111E-02
-4.786057E-02
-8.838121E-02
-1.076911E-01
-5.986284E-02
-9.553693E-02
-9.439537E-02
-6.791135E-02
-2.097277E-02
2.269342E-02
5.632103E-02
-4.045399E-02
-5.652767E-02
1.152608E-01
9.467751E-02
-5.309691E-02
2.171799E-02
-1.968805E-02
-4.066082E-02
-2.240879E-02
-4.745679E-02
-6.971084E-02
-6.802071E-02
-6.791135E-02
-5.468763E-02
1.772083E-02
5.729645E-02
4.041425E-02
1.032245E-01
-1.396998E-02
-2.727082E-02
1.247103E-01
1.626736E-01
-2.763389E-02
5.632103E-02
4.777399E-02
2.269342E-02
-2.097277E-02
2.605600E-02
-4.045399E-02
-5.652767E-02
-5.309691E-02
-5.468763E-02
-3.269746E-02
4.420485E-02
1.027640E-01
7.906367E-02
1.493828E-01
1.587597E-02
-1.330084E-02
1.707114E-01
1.972766E-01
-2.045815E-02
1.032245E-01
5.729645E-02
9.467751E-02
4.041425E-02
1.772083E-02
6.351005E-02
-1.396998E-02
-2.727082E-02
-2.763389E-02
-3.269746E-02
-2.196840E-02
4.235999E-02
8.285427E-02
1.068103E-01
1.479468E-01
1.868369E-01
2.690181E-02
1.102584E-02
2.416880E-01
-6.125108E-03
1.493828E-01
1.027640E-01
1.247103E-01
7.906367E-02
4.420485E-02
1.152608E-01
1.587597E-02
-1.330084E-02
-2.045815E-02
-2.196840E-02
-9.729089E-03
7.462220E-02
1.170837E-01
1.452040E-01
1.744308E-01
2.302185E-01
5.141311E-02
2.535888E-02
2.762911E-01
2.585044E-01
6.641554E-03
1.868369E-01
1.479468E-01
1.068103E-01
1.707114E-01
8.285427E-02
4.235999E-02
1.626736E-01
2.690181E-02
1.102584E-02
-6.125108E-03
-9.729089E-03
-3.603981E-03
7.264949E-02
1.106965E-01
1.516867E-01
2.127156E-01
2.567025E-01
4.987018E-02
2.097460E-02
3.208541E-01
2.985655E-01
9.293808E-03
2.302185E-01
1.744308E-01
1.452040E-01
1.972766E-01
1.170837E-01
7.462220E-02
5.141311E-02
2.535888E-02
6.641554E-03
-3.603981E-03
2.652255E-03
9.759058E-02
1.250295E-01
1.867056E-01
2.501697E-01
2.185076E-01
3.009444E-01
6.695963E-02
3.511990E-02
3.263121E-01
3.604445E-01
1.593536E-02
2.567025E-01
2.585044E-01
2.127156E-01
1.516867E-01
2.416880E-01
1.106965E-01
7.264949E-02
4.987018E-02
2.097460E-02
9.293808E-03
2.652255E-03
2.652255E-03
9.344364E-02
1.513591E-01
2.010386E-01
2.859944E-01
2.498081E-01
3.360783E-01
5.659363E-02
2.742841E-02
3.632941E-01
3.869285E-01
9.293808E-03
3.009444E-01
2.501697E-01
2.985655E-01
2.185076E-01
1.867056E-01
2.762911E-01
1.250295E-01
9.759058E-02
6.695963E-02
3.511990E-02
1.593536E-02
2.652255E-03
-3.603981E-03
1.147685E-01
1.859622E-01
1.452450E-01
2.414759E-01
2.798409E-01
3.276612E-01
3.706814E-01
5.659363E-02
3.511990E-02
4.205253E-01
6.641554E-03
3.360783E-01
2.859944E-01
3.263121E-01
2.498081E-01
2.010386E-01
3.208541E-01
1.513591E-01
9.344364E-02
5.659363E-02
2.742841E-02
9.293808E-03
-3.603981E-03
-9.729089E-03
1.147685E-01
2.075947E-01
1.630197E-01
2.637993E-01
3.089628E-01
3.419942E-01
4.036702E-01
6.695963E-02
2.097460E-02
4.470093E-01
4.298798E-01
-6.125108E-03
3.706814E-01
3.276612E-01
2.798409E-01
3.632941E-01
2.414759E-01
1.859622E-01
3.604445E-01
1.452450E-01
1.147685E-01
5.659363E-02
3.511990E-02
6.641554E-03
-9.729089E-03
-2.196840E-02
9.344364E-02
1.452450E-01
1.907664E-01
2.449944E-01
3.012533E-01
3.703538E-01
4.180033E-01
4.987018E-02
2.535888E-02
4.776002E-01
4.569995E-01
-2.045815E-02
4.036702E-01
3.419942E-01
3.089628E-01
3.869285E-01
2.637993E-01
2.075947E-01
1.630197E-01
1.147685E-01
6.695963E-02
2.097460E-02
-6.125108E-03
-2.196840E-02
-3.269746E-02
9.759058E-02
1.513591E-01
2.075947E-01
2.449944E-01
3.272661E-01
4.049568E-01
3.633351E-01
4.528481E-01
5.141311E-02
1.102584E-02
4.782359E-01
5.033409E-01
-2.763389E-02
4.180033E-01
4.298798E-01
3.703538E-01
3.012533E-01
4.205253E-01
2.449944E-01
1.907664E-01
1.452450E-01
9.344364E-02
4.987018E-02
2.535888E-02
-2.045815E-02
-3.269746E-02
-5.468763E-02
7.264949E-02
1.250295E-01
1.859622E-01
2.637993E-01
3.272661E-01
4.256848E-01
3.825215E-01
4.716089E-01
2.690181E-02
-1.330084E-02
5.005685E-01
5.176740E-01
-5.309691E-02
4.528481E-01
4.049568E-01
4.569995E-01
3.633351E-01
3.272661E-01
4.470093E-01
2.449944E-01
2.075947E-01
1.513591E-01
9.759058E-02
5.141311E-02
1.102584E-02
-2.763389E-02
-5.468763E-02
-6.791135E-02
7.462220E-02
1.106965E-01
2.010386E-01
3.012533E-01
2.414759E-01
3.633351E-01
4.102682E-01
4.574921E-01
4.980929E-01
1.587597E-02
-2.727082E-02
5.353413E-01
-6.802071E-02
4.716089E-01
4.256848E-01
4.782359E-01
3.825215E-01
3.272661E-01
4.776002E-01
2.637993E-01
1.859622E-01
1.250295E-01
7.264949E-02
2.690181E-02
-1.330084E-02
-5.309691E-02
-6.791135E-02
-9.439537E-02
4.235999E-02
1.170837E-01
1.867056E-01
3.089628E-01
2.498081E-01
3.703538E-01
4.256848E-01
4.574921E-01
5.156669E-01
-1.396998E-02
-5.652767E-02
5.496744E-01
5.358099E-01
-9.553693E-02
4.980929E-01
4.574921E-01
4.102682E-01
5.005685E-01
3.633351E-01
3.012533E-01
5.033409E-01
2.414759E-01
2.010386E-01
1.106965E-01
7.462220E-02
1.587597E-02
-2.727082E-02
-6.802071E-02
-9.439537E-02
-1.180204E-01
4.420485E-02
1.516867E-01
8.285427E-02
2.185076E-01
2.798409E-01
3.419942E-01
4.049568E-01
4.716089E-01
5.156669E-01
-4.045399E-02
-6.971084E-02
5.616360E-01
5.458595E-01
-1.220242E-01
5.156669E-01
4.574921E-01
4.256848E-01
5.176740E-01
3.703538E-01
3.089628E-01
2.498081E-01
1.867056E-01
1.170837E-01
4.235999E-02
-1.396998E-02
-5.652767E-02
-9.553693E-02
-1.180204E-01
-1.479805E-01
1.772083E-02
1.452040E-01
7.906367E-02
2.127156E-01
2.859944E-01
3.276612E-01
4.180033E-01
4.980929E-01
4.528481E-01
5.358099E-01
-4.745679E-02
-1.076911E-01
5.573526E-01
5.696083E-01
-1.508427E-01
5.156669E-01
5.358099E-01
4.716089E-01
4.049568E-01
5.353413E-01
3.419942E-01
2.798409E-01
2.185076E-01
1.516867E-01
8.285427E-02
4.420485E-02
-4.045399E-02
-6.971084E-02
-1.220242E-01
-1.479805E-01
-1.770990E-01
4.041425E-02
-2.097277E-02
1.068103E-01
1.744308E-01
2.501697E-01
3.360783E-01
4.036702E-01
5.005685E-01
4.569995E-01
5.353413E-01
-8.838121E-02
-1.193587E-01
5.616360E-01
5.696083E-01
-1.854457E-01
5.358099E-01
4.980929E-01
5.458595E-01
4.528481E-01
4.180033E-01
5.496744E-01
3.276612E-01
2.859944E-01
2.127156E-01
1.452040E-01
7.906367E-02
1.772083E-02
-4.745679E-02
-1.076911E-01
-1.508427E-01
-1.770990E-01
-2.034310E-01
2.269342E-02
-4.066082E-02
1.027640E-01
1.479468E-01
2.567025E-01
3.706814E-01
3.009444E-01
4.298798E-01
4.782359E-01
5.176740E-01
5.496744E-01
-1.037175E-01
-1.539617E-01
-2.047724E-01
5.353413E-01
5.005685E-01
5.573526E-01
4.569995E-01
4.036702E-01
5.616360E-01
3.360783E-01
2.501697E-01
1.744308E-01
1.068103E-01
4.041425E-02
-2.097277E-02
-8.838121E-02
-1.193587E-01
-1.854457E-01
-2.034310E-01
-2.413472E-01
5.729645E-02
-1.968805E-02
-8.248111E-02
1.493828E-01
2.302185E-01
3.632941E-01
2.985655E-01
4.205253E-01
4.776002E-01
5.033409E-01
-1.438318E-01
-1.904394E-01
-2.461615E-01
5.496744E-01
5.176740E-01
4.782359E-01
5.616360E-01
4.298798E-01
3.706814E-01
5.696083E-01
3.009444E-01
2.567025E-01
1.479468E-01
1.027640E-01
2.269342E-02
-4.066082E-02
-1.037175E-01
-1.539617E-01
-2.047724E-01
-2.413472E-01
-2.647510E-01
5.632103E-02
-5.429108E-02
-9.611138E-02
1.868369E-01
1.032245E-01
2.585044E-01
3.263121E-01
3.869285E-01
4.470093E-01
-1.707836E-01
-2.203354E-01
-2.707086E-01
5.033409E-01
4.776002E-01
5.696083E-01
4.205253E-01
3.632941E-01
2.985655E-01
2.302185E-01
1.493828E-01
5.729645E-02
-1.968805E-02
-8.248111E-02
-1.438318E-01
-1.904394E-01
-2.461615E-01
-2.647510E-01
-3.022050E-01
2.171799E-02
-6.005482E-02
-1.442996E-01
1.707114E-01
9.467751E-02
2.416880E-01
3.208541E-01
3.604445E-01
-2.108096E-01
-2.592156E-01
-3.061807E-01
4.470093E-01
3.869285E-01
3.263121E-01
2.585044E-01
1.868369E-01
1.032245E-01
5.632103E-02
-5.429108E-02
-9.611138E-02
-1.707836E-01
-2.203354E-01
-2.707086E-01
-3.022050E-01
-3.309133E-01
4.777399E-02
-2.545178E-02
-1.102103E-01
-1.526348E-01
1.247103E-01
1.972766E-01
2.762911E-01
-2.482637E-01
-2.803546E-01
-3.382604E-01
3.604445E-01
3.208541E-01
2.416880E-01
1.707114E-01
9.467751E-02
2.171799E-02
-6.005482E-02
-1.442996E-01
-2.108096E-01
-2.592156E-01
-3.061807E-01
-3.309133E-01
-3.664659E-01
2.605600E-02
-4.786057E-02
-1.236242E-01
-1.900888E-01
1.152608E-01
1.626736E-01
-2.603497E-01
-3.239274E-01
-3.698373E-01
2.762911E-01
1.972766E-01
1.247103E-01
4.777399E-02
-2.545178E-02
-1.102103E-01
-1.526348E-01
-2.482637E-01
-2.803546E-01
-3.382604E-01
-3.664659E-01
-3.964868E-01
6.351005E-02
-2.240879E-02
-9.587756E-02
-1.702295E-01
-2.338657E-01
-3.068666E-01
-3.383533E-01
-4.044404E-01
1.626736E-01
1.152608E-01
2.605600E-02
-4.786057E-02
-1.236242E-01
-1.900888E-01
-2.603497E-01
-3.239274E-01
-3.698373E-01
-3.964868E-01
-4.219164E-01
-5.986284E-02
-1.078798E-01
-1.935428E-01
-2.591462E-01
-3.231053E-01
-3.729564E-01
-4.210087E-01
6.351005E-02
-2.240879E-02
-9.587756E-02
-1.702295E-01
-2.338657E-01
-3.068666E-01
-3.383533E-01
-4.044404E-01
-4.219164E-01
-4.542401E-01
-1.589398E-01
-2.386827E-01
-3.018689E-01
-3.623171E-01
-4.066756E-01
-4.568052E-01
-5.986284E-02
-1.078798E-01
-1.935428E-01
-2.591462E-01
-3.231053E-01
-3.729564E-01
-4.210087E-01
-4.542401E-01
-4.725607E-01
-2.732857E-01
-3.145967E-01
-3.836765E-01
-4.309791E-01
-4.733965E-01
-1.589398E-01
-2.386827E-01
-3.018689E-01
-3.623171E-01
-4.066756E-01
-4.568052E-01
-4.725607E-01
-4.990447E-01
-3.571925E-01
-4.186193E-01
-4.619035E-01
-4.992453E-01
-2.732857E-01
-3.145967E-01
-3.836765E-01
-4.309791E-01
-4.733965E-01
-4.990447E-01
-5.175729E-01
-4.451033E-01
-4.734192E-01
-5.153989E-01
-3.571925E-01
-4.186193E-01
-4.619035E-01
-4.992453E-01
-5.175729E-01
-5.371994E-01
-5.010659E-01
-5.348249E-01
-4.451033E-01
-4.734192E-01
-5.153989E-01
-5.371994E-01
-5.516174E-01
-5.491579E-01
-5.010659E-01
-5.348249E-01
-5.516174E-01
-5.601678E-01
-5.491579E-01
-5.601678E-01
-5.686565E-01
-5.686565E-01
