# vtk DataFile Version 2.0
Grille
ASCII
DATASET POLYDATA
POINTS 481 float
0.000000E+00 8.750000E-01 -5.496615E-01
6.250000E-02 8.750000E-01 -5.390999E-01
1.250000E-01 8.750000E-01 -5.078210E-01
1.250000E-01 9.375000E-01 -5.390999E-01
1.250000E-01 1.000000E+00 -5.496615E-01
6.250000E-02 1.000000E+00 -5.835175E-01
0.000000E+00 1.000000E+00 -5.949493E-01
0.000000E+00 9.375000E-01 -5.835175E-01
3.750000E-02 9.125000E-01 -5.686430E-01
8.125000E-02 9.187500E-01 -5.570201E-01
8.750000E-02 9.625000E-01 -5.686430E-01
4.375000E-02 9.562500E-01 -5.837807E-01
1.875000E-01 8.750000E-01 -4.570268E-01
2.500000E-01 8.750000E-01 -3.886694E-01
2.500000E-01 9.375000E-01 -4.126092E-01
2.500000E-01 1.000000E+00 -4.206927E-01
1.875000E-01 1.000000E+00 -4.946823E-01
1.625000E-01 9.125000E-01 -4.996017E-01
2.062500E-01 9.187500E-01 -4.589955E-01
2.125000E-01 9.625000E-01 -4.639852E-01
1.687500E-01 9.562500E-01 -5.084426E-01
0.000000E+00 7.500000E-01 -4.206927E-01
6.250000E-02 7.500000E-01 -4.126092E-01
1.250000E-01 7.500000E-01 -3.886694E-01
1.250000E-01 8.125000E-01 -4.570268E-01
0.000000E+00 8.125000E-01 -4.946823E-01
3.750000E-02 7.875000E-01 -4.639852E-01
8.125000E-02 7.937500E-01 -4.589955E-01
8.750000E-02 8.375000E-01 -4.996017E-01
4.375000E-02 8.312500E-01 -5.084426E-01
1.875000E-01 7.500000E-01 -3.497932E-01
2.500000E-01 7.500000E-01 -2.974747E-01
2.500000E-01 8.125000E-01 -3.497932E-01
1.625000E-01 7.875000E-01 -4.076509E-01
2.062500E-01 7.937500E-01 -3.782213E-01
2.125000E-01 8.375000E-01 -4.076509E-01
1.687500E-01 8.312500E-01 -4.428271E-01
3.125000E-01 8.750000E-01 -3.053756E-01
3.750000E-01 8.750000E-01 -2.103463E-01
3.750000E-01 9.375000E-01 -2.233025E-01
3.750000E-01 1.000000E+00 -2.276772E-01
3.125000E-01 1.000000E+00 -3.305361E-01
2.875000E-01 9.125000E-01 -3.545007E-01
3.312500E-01 9.187500E-01 -2.910930E-01
3.375000E-01 9.625000E-01 -2.886898E-01
2.937500E-01 9.562500E-01 -3.556988E-01
4.375000E-01 8.750000E-01 -1.072336E-01
5.000000E-01 8.750000E-01 -3.365706E-17
5.000000E-01 9.375000E-01 -3.573014E-17
5.000000E-01 1.000000E+00 -3.643014E-17
4.375000E-01 1.000000E+00 -1.160689E-01
4.125000E-01 9.125000E-01 -1.554301E-01
4.562500E-01 9.187500E-01 -7.887422E-02
4.625000E-01 9.625000E-01 -6.944408E-02
4.187500E-01 9.562500E-01 -1.488030E-01
3.125000E-01 7.500000E-01 -2.337243E-01
3.750000E-01 7.500000E-01 -1.609921E-01
3.750000E-01 8.125000E-01 -1.893067E-01
2.875000E-01 7.875000E-01 -2.892554E-01
3.312500E-01 7.937500E-01 -2.398663E-01
3.375000E-01 8.375000E-01 -2.536388E-01
2.937500E-01 8.312500E-01 -3.097951E-01
4.375000E-01 7.500000E-01 -8.207307E-02
5.000000E-01 7.500000E-01 -2.576000E-17
5.000000E-01 8.125000E-01 -3.029055E-17
4.125000E-01 7.875000E-01 -1.268234E-01
4.562500E-01 7.937500E-01 -6.499391E-02
4.625000E-01 8.375000E-01 -6.101259E-02
4.187500E-01 8.312500E-01 -1.295997E-01
0.000000E+00 6.250000E-01 -2.276772E-01
6.250000E-02 6.250000E-01 -2.233025E-01
1.250000E-01 6.250000E-01 -2.103463E-01
1.250000E-01 6.875000E-01 -3.053756E-01
0.000000E+00 6.875000E-01 -3.305361E-01
3.750000E-02 6.625000E-01 -2.886898E-01
8.125000E-02 6.687500E-01 -2.910930E-01
8.750000E-02 7.125000E-01 -3.545007E-01
4.375000E-02 7.062500E-01 -3.556988E-01
1.875000E-01 6.250000E-01 -1.893067E-01
2.500000E-01 6.250000E-01 -1.609921E-01
2.500000E-01 6.875000E-01 -2.337243E-01
1.625000E-01 6.625000E-01 -2.536388E-01
2.062500E-01 6.687500E-01 -2.398663E-01
2.125000E-01 7.125000E-01 -2.892554E-01
1.687500E-01 7.062500E-01 -3.097951E-01
0.000000E+00 5.000000E-01 3.643014E-17
6.250000E-02 5.000000E-01 3.573014E-17
1.250000E-01 5.000000E-01 3.365706E-17
1.250000E-01 5.625000E-01 -1.072336E-01
0.000000E+00 5.625000E-01 -1.160689E-01
3.750000E-02 5.375000E-01 -6.944408E-02
8.125000E-02 5.437500E-01 -7.887422E-02
8.750000E-02 5.875000E-01 -1.554301E-01
4.375000E-02 5.812500E-01 -1.488030E-01
1.875000E-01 5.000000E-01 3.029055E-17
2.500000E-01 5.000000E-01 2.576000E-17
2.500000E-01 5.625000E-01 -8.207307E-02
1.625000E-01 5.375000E-01 -6.101259E-02
2.062500E-01 5.437500E-01 -6.499391E-02
2.125000E-01 5.875000E-01 -1.268234E-01
1.687500E-01 5.812500E-01 -1.295997E-01
3.125000E-01 6.250000E-01 -1.264907E-01
3.750000E-01 6.250000E-01 -8.712831E-02
3.750000E-01 6.875000E-01 -1.264907E-01
2.875000E-01 6.625000E-01 -1.799736E-01
3.312500E-01 6.687500E-01 -1.521222E-01
3.375000E-01 7.125000E-01 -1.799736E-01
2.937500E-01 7.062500E-01 -2.167280E-01
4.375000E-01 6.250000E-01 -4.441763E-02
5.000000E-01 6.250000E-01 -1.394121E-17
5.000000E-01 6.875000E-01 -2.023950E-17
4.125000E-01 6.625000E-01 -7.890906E-02
4.562500E-01 6.687500E-01 -4.121886E-02
4.625000E-01 7.125000E-01 -4.329249E-02
4.187500E-01 7.062500E-01 -9.066599E-02
3.125000E-01 5.000000E-01 2.023950E-17
3.750000E-01 5.000000E-01 1.394121E-17
3.750000E-01 5.625000E-01 -4.441763E-02
2.875000E-01 5.375000E-01 -4.329249E-02
3.312500E-01 5.437500E-01 -4.121886E-02
3.375000E-01 5.875000E-01 -7.890906E-02
2.937500E-01 5.812500E-01 -9.066599E-02
4.375000E-01 5.000000E-01 7.107167E-18
5.000000E-01 5.000000E-01 2.230703E-33
5.000000E-01 5.625000E-01 -7.107167E-18
4.125000E-01 5.375000E-01 -1.898150E-02
4.562500E-01 5.437500E-01 -1.116862E-02
4.625000E-01 5.875000E-01 -1.898150E-02
4.187500E-01 5.812500E-01 -3.792921E-02
5.625000E-01 8.750000E-01 1.072336E-01
6.250000E-01 8.750000E-01 2.103463E-01
6.250000E-01 9.375000E-01 2.233025E-01
6.250000E-01 1.000000E+00 2.276772E-01
5.625000E-01 1.000000E+00 1.160689E-01
5.375000E-01 9.125000E-01 6.730333E-02
5.812500E-01 9.187500E-01 1.453524E-01
5.875000E-01 9.625000E-01 1.603739E-01
5.437500E-01 9.562500E-01 8.074665E-02
6.875000E-01 8.750000E-01 3.053756E-01
7.500000E-01 8.750000E-01 3.886694E-01
7.500000E-01 9.375000E-01 4.126092E-01
7.500000E-01 1.000000E+00 4.206927E-01
6.875000E-01 1.000000E+00 3.305361E-01
6.625000E-01 9.125000E-01 2.797904E-01
7.062500E-01 9.187500E-01 3.474505E-01
7.125000E-01 9.625000E-01 3.657764E-01
6.687500E-01 9.562500E-01 2.980034E-01
5.625000E-01 7.500000E-01 8.207307E-02
6.250000E-01 7.500000E-01 1.609921E-01
6.250000E-01 8.125000E-01 1.893067E-01
5.375000E-01 7.875000E-01 5.491627E-02
5.812500E-01 7.937500E-01 1.197733E-01
5.875000E-01 8.375000E-01 1.409023E-01
5.437500E-01 8.312500E-01 7.032614E-02
6.875000E-01 7.500000E-01 2.337243E-01
7.500000E-01 7.500000E-01 2.974747E-01
7.500000E-01 8.125000E-01 3.497932E-01
6.625000E-01 7.875000E-01 2.282955E-01
7.062500E-01 7.937500E-01 2.863060E-01
7.125000E-01 8.375000E-01 3.213660E-01
6.687500E-01 8.312500E-01 2.595454E-01
8.125000E-01 8.750000E-01 4.570268E-01
8.750000E-01 8.750000E-01 5.078210E-01
8.750000E-01 9.375000E-01 5.390999E-01
8.750000E-01 1.000000E+00 5.496615E-01
8.125000E-01 1.000000E+00 4.946823E-01
7.875000E-01 9.125000E-01 4.496820E-01
8.312500E-01 9.187500E-01 4.966524E-01
8.375000E-01 9.625000E-01 5.154928E-01
7.937500E-01 9.562500E-01 4.698918E-01
9.375000E-01 8.750000E-01 5.390999E-01
1.000000E+00 8.750000E-01 5.496615E-01
1.000000E+00 9.375000E-01 5.835175E-01
1.000000E+00 1.000000E+00 5.949493E-01
9.375000E-01 1.000000E+00 5.835175E-01
9.125000E-01 9.125000E-01 5.511135E-01
9.562500E-01 9.187500E-01 5.702434E-01
9.625000E-01 9.625000E-01 5.867301E-01
9.187500E-01 9.562500E-01 5.702434E-01
8.125000E-01 7.500000E-01 3.497932E-01
8.750000E-01 7.500000E-01 3.886694E-01
8.750000E-01 8.125000E-01 4.570268E-01
7.875000E-01 7.875000E-01 3.669187E-01
8.312500E-01 7.937500E-01 4.092513E-01
8.375000E-01 8.375000E-01 4.529047E-01
7.937500E-01 8.312500E-01 4.092513E-01
9.375000E-01 7.500000E-01 4.126092E-01
1.000000E+00 7.500000E-01 4.206927E-01
1.000000E+00 8.125000E-01 4.946823E-01
9.125000E-01 7.875000E-01 4.496820E-01
9.562500E-01 7.937500E-01 4.698918E-01
9.625000E-01 8.375000E-01 5.154928E-01
9.187500E-01 8.312500E-01 4.966524E-01
5.625000E-01 6.250000E-01 4.441763E-02
6.250000E-01 6.250000E-01 8.712831E-02
6.250000E-01 6.875000E-01 1.264907E-01
5.375000E-01 6.625000E-01 3.416869E-02
5.812500E-01 6.687500E-01 7.595969E-02
5.875000E-01 7.125000E-01 9.997953E-02
5.437500E-01 7.062500E-01 4.919910E-02
6.875000E-01 6.250000E-01 1.264907E-01
7.500000E-01 6.250000E-01 1.609921E-01
7.500000E-01 6.875000E-01 2.337243E-01
6.625000E-01 6.625000E-01 1.420446E-01
7.062500E-01 6.687500E-01 1.815741E-01
7.125000E-01 7.125000E-01 2.280306E-01
6.687500E-01 7.062500E-01 1.815741E-01
5.625000E-01 5.000000E-01 -7.107167E-18
6.250000E-01 5.000000E-01 -1.394121E-17
6.250000E-01 5.625000E-01 4.441763E-02
5.375000E-01 5.375000E-01 8.219248E-03
5.812500E-01 5.437500E-01 2.058195E-02
5.875000E-01 5.875000E-01 4.383582E-02
5.437500E-01 5.812500E-01 2.058195E-02
6.875000E-01 5.000000E-01 -2.023950E-17
7.500000E-01 5.000000E-01 -2.576000E-17
7.500000E-01 5.625000E-01 8.207307E-02
6.625000E-01 5.375000E-01 3.416869E-02
7.062500E-01 5.437500E-01 4.919910E-02
7.125000E-01 5.875000E-01 9.997953E-02
6.687500E-01 5.812500E-01 7.595969E-02
8.125000E-01 6.250000E-01 1.893067E-01
8.750000E-01 6.250000E-01 2.103463E-01
8.750000E-01 6.875000E-01 3.053756E-01
7.875000E-01 6.625000E-01 2.282955E-01
8.312500E-01 6.687500E-01 2.595454E-01
8.375000E-01 7.125000E-01 3.213660E-01
7.937500E-01 7.062500E-01 2.863060E-01
9.375000E-01 6.250000E-01 2.233025E-01
1.000000E+00 6.250000E-01 2.276772E-01
1.000000E+00 6.875000E-01 3.305361E-01
9.125000E-01 6.625000E-01 2.797904E-01
9.562500E-01 6.687500E-01 2.980034E-01
9.625000E-01 7.125000E-01 3.657764E-01
9.187500E-01 7.062500E-01 3.474505E-01
8.125000E-01 5.000000E-01 -3.029055E-17
8.750000E-01 5.000000E-01 -3.365706E-17
8.750000E-01 5.625000E-01 1.072336E-01
7.875000E-01 5.375000E-01 5.491627E-02
8.312500E-01 5.437500E-01 7.032614E-02
8.375000E-01 5.875000E-01 1.409023E-01
7.937500E-01 5.812500E-01 1.197733E-01
9.375000E-01 5.000000E-01 -3.573014E-17
1.000000E+00 5.000000E-01 -3.643014E-17
1.000000E+00 5.625000E-01 1.160689E-01
9.125000E-01 5.375000E-01 6.730333E-02
9.562500E-01 5.437500E-01 8.074665E-02
9.625000E-01 5.875000E-01 1.603739E-01
9.187500E-01 5.812500E-01 1.453524E-01
0.000000E+00 3.750000E-01 2.276772E-01
6.250000E-02 3.750000E-01 2.233025E-01
[...]
CELL_DATA 896
SCALARS sol float 1
LOOKUP_TABLE default
-5.524681E-01
-5.549210E-01
-5.672740E-01
-5.324013E-01
-5.698146E-01
-5.346470E-01
-5.786471E-01
-5.175955E-01
-5.157148E-01
-5.698146E-01
-5.346470E-01
-5.155075E-01
-5.874158E-01
-4.890367E-01
-4.890133E-01
-5.786471E-01
-5.549210E-01
-5.155075E-01
-4.881499E-01
-5.874158E-01
-4.771411E-01
-4.597867E-01
-4.718747E-01
-5.672740E-01
-5.524681E-01
-4.881499E-01
-5.157148E-01
-4.692250E-01
-4.451966E-01
-4.324290E-01
-4.348972E-01
-5.324013E-01
-4.718747E-01
-4.692250E-01
-4.890133E-01
-4.358349E-01
-4.200914E-01
-3.963336E-01
-4.177824E-01
-5.175955E-01
-4.348972E-01
-4.358349E-01
-4.771411E-01
-4.095664E-01
-3.852597E-01
-3.689759E-01
-3.742695E-01
-3.820378E-01
-4.890367E-01
-4.200914E-01
-4.177824E-01
-4.095664E-01
-4.451966E-01
-3.785551E-01
-3.495152E-01
-3.249749E-01
-3.337641E-01
-3.494192E-01
-4.597867E-01
-3.852597E-01
-3.820378E-01
-3.785551E-01
-4.324290E-01
-3.418297E-01
-3.169897E-01
-3.346134E-01
-3.118272E-01
-2.823011E-01
-3.162812E-01
-3.495152E-01
-3.742695E-01
-3.494192E-01
-3.418297E-01
-3.963336E-01
-3.121744E-01
-2.689383E-01
-2.896032E-01
-2.676951E-01
-2.465565E-01
-2.796390E-01
-3.169897E-01
-3.346134E-01
-3.337641E-01
-3.162812E-01
-3.121744E-01
-3.689759E-01
-2.734848E-01
-2.415806E-01
-2.564536E-01
-2.677668E-01
-1.999276E-01
-2.542820E-01
-2.689383E-01
-2.896032E-01
-3.118272E-01
-2.796390E-01
-2.734848E-01
-3.249749E-01
-2.493090E-01
-1.963596E-01
-2.177640E-01
-2.276040E-01
-1.641830E-01
-1.758452E-01
-2.115276E-01
-2.415806E-01
-2.564536E-01
-2.677668E-01
-2.676951E-01
-2.542820E-01
-2.493090E-01
-2.823011E-01
-2.101420E-01
-1.576700E-01
-1.764176E-01
-1.967217E-01
-1.114386E-01
-1.277024E-01
-1.915634E-01
-1.963596E-01
-2.177640E-01
-2.276040E-01
-2.465565E-01
-2.115276E-01
-2.101420E-01
-1.829413E-01
-1.490599E-01
-1.138460E-01
-1.485766E-01
-1.590408E-01
-9.904044E-02
-6.183764E-02
-1.558188E-01
-1.576700E-01
-1.758452E-01
-1.764176E-01
-1.967217E-01
-1.999276E-01
-1.915634E-01
-1.829413E-01
-1.528622E-01
-9.928197E-02
-6.203595E-02
-1.071390E-01
-1.232962E-01
-4.943943E-02
-2.314803E-02
-1.260496E-01
-1.138460E-01
-1.490599E-01
-1.277024E-01
-1.485766E-01
-1.590408E-01
-1.641830E-01
-1.558188E-01
-1.528622E-01
-1.219137E-01
-8.520206E-02
-5.608208E-02
-2.629141E-02
-9.129680E-02
-1.112437E-01
2.691555E-02
-9.868858E-02
-6.203595E-02
-9.928197E-02
-9.904044E-02
-1.071390E-01
-1.232962E-01
-1.114386E-01
-1.260496E-01
-1.219137E-01
-9.750936E-02
-4.200217E-02
-2.033753E-02
2.243444E-02
-4.902233E-02
-7.201052E-02
6.560517E-02
4.935000E-02
-7.026464E-02
-2.629141E-02
-5.608208E-02
-8.520206E-02
-4.943943E-02
-9.129680E-02
-1.112437E-01
-6.183764E-02
-9.868858E-02
-9.750936E-02
-7.015167E-02
-2.166464E-02
2.344205E-02
5.817899E-02
-4.178852E-02
-5.839245E-02
1.190631E-01
9.780081E-02
-5.484852E-02
2.243444E-02
-2.033753E-02
-4.200217E-02
-2.314803E-02
-4.902233E-02
-7.201052E-02
-7.026464E-02
-7.015167E-02
-5.649171E-02
1.830542E-02
5.918659E-02
4.174747E-02
1.066298E-01
-1.443083E-02
-2.817045E-02
1.288243E-01
1.680400E-01
-2.854550E-02
5.817899E-02
4.935000E-02
2.344205E-02
-2.166464E-02
2.691555E-02
-4.178852E-02
-5.839245E-02
-5.484852E-02
-5.649171E-02
-3.377611E-02
4.566311E-02
1.061540E-01
8.167189E-02
1.543108E-01
1.639970E-02
-1.373962E-02
1.763429E-01
2.037845E-01
-2.113304E-02
1.066298E-01
5.918659E-02
9.780081E-02
4.174747E-02
1.830542E-02
6.560517E-02
-1.443083E-02
-2.817045E-02
-2.854550E-02
-3.377611E-02
-2.269311E-02
4.375739E-02
8.558753E-02
1.103339E-01
1.528274E-01
1.930004E-01
2.778927E-02
1.138956E-02
2.496610E-01
-6.327168E-03
1.543108E-01
1.061540E-01
1.288243E-01
8.167189E-02
4.566311E-02
1.190631E-01
1.639970E-02
-1.373962E-02
-2.113304E-02
-2.269311E-02
-1.005004E-02
7.708390E-02
1.209462E-01
1.499941E-01
1.801851E-01
2.378131E-01
5.310916E-02
2.619544E-02
2.854056E-01
2.670321E-01
6.860650E-03
1.930004E-01
1.528274E-01
1.103339E-01
1.763429E-01
8.558753E-02
4.375739E-02
1.680400E-01
2.778927E-02
1.138956E-02
-6.327168E-03
-1.005004E-02
-3.722872E-03
7.504611E-02
1.143482E-01
1.566907E-01
2.197328E-01
2.651708E-01
5.151534E-02
2.166653E-02
3.314386E-01
3.084148E-01
9.600400E-03
2.378131E-01
1.801851E-01
1.499941E-01
2.037845E-01
1.209462E-01
7.708390E-02
5.310916E-02
2.619544E-02
6.860650E-03
-3.722872E-03
2.739749E-03
1.008100E-01
1.291541E-01
1.928648E-01
2.584225E-01
2.257159E-01
3.108722E-01
6.916854E-02
3.627846E-02
3.370768E-01
3.723351E-01
1.646105E-02
2.651708E-01
2.670321E-01
2.197328E-01
1.566907E-01
2.496610E-01
1.143482E-01
7.504611E-02
5.151534E-02
2.166653E-02
9.600400E-03
2.739749E-03
2.739749E-03
9.652623E-02
1.563523E-01
2.076706E-01
2.954290E-01
2.580490E-01
3.471651E-01
5.846058E-02
2.833324E-02
3.752787E-01
3.996928E-01
9.600400E-03
3.108722E-01
2.584225E-01
3.084148E-01
2.257159E-01
1.928648E-01
2.854056E-01
1.291541E-01
1.008100E-01
6.916854E-02
3.627846E-02
1.646105E-02
2.739749E-03
-3.722872E-03
1.185545E-01
1.920968E-01
1.500364E-01
2.494419E-01
2.890725E-01
3.384703E-01
3.829097E-01
5.846058E-02
3.627846E-02
4.343979E-01
6.860650E-03
3.471651E-01
2.954290E-01
3.370768E-01
2.580490E-01
2.076706E-01
3.314386E-01
1.563523E-01
9.652623E-02
5.846058E-02
2.833324E-02
9.600400E-03
-3.722872E-03
-1.005004E-02
1.185545E-01
2.144430E-01
1.683976E-01
2.725017E-01
3.191551E-01
3.532762E-01
4.169868E-01
6.916854E-02
2.166653E-02
4.617556E-01
4.440610E-01
-6.327168E-03
3.829097E-01
3.384703E-01
2.890725E-01
3.752787E-01
2.494419E-01
1.920968E-01
3.723351E-01
1.500364E-01
1.185545E-01
5.846058E-02
3.627846E-02
6.860650E-03
-1.005004E-02
-2.269311E-02
9.652623E-02
1.500364E-01
1.970596E-01
2.530765E-01
3.111913E-01
3.825713E-01
4.317927E-01
5.151534E-02
2.619544E-02
4.933556E-01
4.720754E-01
-2.113304E-02
4.169868E-01
3.532762E-01
3.191551E-01
3.996928E-01
2.725017E-01
2.144430E-01
1.683976E-01
1.185545E-01
6.916854E-02
2.166653E-02
-6.327168E-03
-2.269311E-02
-3.377611E-02
1.008100E-01
1.563523E-01
2.144430E-01
2.530765E-01
3.380622E-01
4.183158E-01
3.753211E-01
4.677871E-01
5.310916E-02
1.138956E-02
4.940123E-01
5.199455E-01
-2.854550E-02
4.317927E-01
4.440610E-01
3.825713E-01
3.111913E-01
4.343979E-01
2.530765E-01
1.970596E-01
1.500364E-01
9.652623E-02
5.151534E-02
2.619544E-02
-2.113304E-02
-3.377611E-02
-5.649171E-02
7.504611E-02
1.291541E-01
1.920968E-01
2.725017E-01
3.380622E-01
4.397276E-01
3.951405E-01
4.871667E-01
2.778927E-02
-1.373962E-02
5.170817E-01
5.347514E-01
-5.484852E-02
4.677871E-01
4.183158E-01
4.720754E-01
3.753211E-01
3.380622E-01
4.617556E-01
2.530765E-01
2.144430E-01
1.563523E-01
1.008100E-01
5.310916E-02
1.138956E-02
-2.854550E-02
-5.649171E-02
-7.015167E-02
7.708390E-02
1.143482E-01
2.076706E-01
3.111913E-01
2.494419E-01
3.753211E-01
4.238025E-01
4.725842E-01
5.145244E-01
1.639970E-02
-2.817045E-02
5.530016E-01
-7.026464E-02
4.871667E-01
4.397276E-01
4.940123E-01
3.951405E-01
3.380622E-01
4.933556E-01
2.725017E-01
1.920968E-01
1.291541E-01
7.504611E-02
2.778927E-02
-1.373962E-02
-5.484852E-02
-7.015167E-02
-9.750936E-02
4.375739E-02
1.209462E-01
1.928648E-01
3.191551E-01
2.580490E-01
3.825713E-01
4.397276E-01
4.725842E-01
5.326781E-01
-1.443083E-02
-5.839245E-02
5.678075E-01
5.534856E-01
-9.868858E-02
5.145244E-01
4.725842E-01
4.238025E-01
5.170817E-01
3.753211E-01
3.111913E-01
5.199455E-01
2.494419E-01
2.076706E-01
1.143482E-01
7.708390E-02
1.639970E-02
-2.817045E-02
-7.026464E-02
-9.750936E-02
-1.219137E-01
4.566311E-02
1.566907E-01
8.558753E-02
2.257159E-01
2.890725E-01
3.532762E-01
4.183158E-01
4.871667E-01
5.326781E-01
-4.178852E-02
-7.201052E-02
5.801637E-01
5.638668E-01
-1.260496E-01
5.326781E-01
4.725842E-01
4.397276E-01
5.347514E-01
3.825713E-01
3.191551E-01
2.580490E-01
1.928648E-01
1.209462E-01
4.375739E-02
-1.443083E-02
-5.839245E-02
-9.868858E-02
-1.219137E-01
-1.528622E-01
1.830542E-02
1.499941E-01
8.167189E-02
2.197328E-01
2.954290E-01
3.384703E-01
4.317927E-01
5.145244E-01
4.677871E-01
5.534856E-01
-4.902233E-02
-1.112437E-01
5.757390E-01
5.883990E-01
-1.558188E-01
5.326781E-01
5.534856E-01
4.871667E-01
4.183158E-01
5.530016E-01
3.532762E-01
2.890725E-01
2.257159E-01
1.566907E-01
8.558753E-02
4.566311E-02
-4.178852E-02
-7.201052E-02
-1.260496E-01
-1.528622E-01
-1.829413E-01
4.174747E-02
-2.166464E-02
1.103339E-01
1.801851E-01
2.584225E-01
3.471651E-01
4.169868E-01
5.170817E-01
4.720754E-01
5.530016E-01
-9.129680E-02
-1.232962E-01
5.801637E-01
5.883990E-01
-1.915634E-01
5.534856E-01
5.145244E-01
5.638668E-01
4.677871E-01
4.317927E-01
5.678075E-01
3.384703E-01
2.954290E-01
2.197328E-01
1.499941E-01
8.167189E-02
1.830542E-02
-4.902233E-02
-1.112437E-01
-1.558188E-01
-1.829413E-01
-2.101420E-01
2.344205E-02
-4.200217E-02
1.061540E-01
1.528274E-01
2.651708E-01
3.829097E-01
3.108722E-01
4.440610E-01
4.940123E-01
5.347514E-01
5.678075E-01
-1.071390E-01
-1.590408E-01
-2.115276E-01
5.530016E-01
5.170817E-01
5.757390E-01
4.720754E-01
4.169868E-01
5.801637E-01
3.471651E-01
2.584225E-01
1.801851E-01
1.103339E-01
4.174747E-02
-2.166464E-02
-9.129680E-02
-1.232962E-01
-1.915634E-01
-2.101420E-01
-2.493090E-01
5.918659E-02
-2.033753E-02
-8.520206E-02
1.543108E-01
2.378131E-01
3.752787E-01
3.084148E-01
4.343979E-01
4.933556E-01
5.199455E-01
-1.485766E-01
-1.967217E-01
-2.542820E-01
5.678075E-01
5.347514E-01
4.940123E-01
5.801637E-01
4.440610E-01
3.829097E-01
5.883990E-01
3.108722E-01
2.651708E-01
1.528274E-01
1.061540E-01
2.344205E-02
-4.200217E-02
-1.071390E-01
-1.590408E-01
-2.115276E-01
-2.493090E-01
-2.734848E-01
5.817899E-02
-5.608208E-02
-9.928197E-02
1.930004E-01
1.066298E-01
2.670321E-01
3.370768E-01
3.996928E-01
4.617556E-01
-1.764176E-01
-2.276040E-01
-2.796390E-01
5.199455E-01
4.933556E-01
5.883990E-01
4.343979E-01
3.752787E-01
3.084148E-01
2.378131E-01
1.543108E-01
5.918659E-02
-2.033753E-02
-8.520206E-02
-1.485766E-01
-1.967217E-01
-2.542820E-01
-2.734848E-01
-3.121744E-01
2.243444E-02
-6.203595E-02
-1.490599E-01
1.763429E-01
9.780081E-02
2.496610E-01
3.314386E-01
3.723351E-01
-2.177640E-01
-2.677668E-01
-3.162812E-01
4.617556E-01
3.996928E-01
3.370768E-01
2.670321E-01
1.930004E-01
1.066298E-01
5.817899E-02
-5.608208E-02
-9.928197E-02
-1.764176E-01
-2.276040E-01
-2.796390E-01
-3.121744E-01
-3.418297E-01
4.935000E-02
-2.629141E-02
-1.138460E-01
-1.576700E-01
1.288243E-01
2.037845E-01
2.854056E-01
-2.564536E-01
-2.896032E-01
-3.494192E-01
3.723351E-01
3.314386E-01
2.496610E-01
1.763429E-01
9.780081E-02
2.243444E-02
-6.203595E-02
-1.490599E-01
-2.177640E-01
-2.677668E-01
-3.162812E-01
-3.418297E-01
-3.785551E-01
2.691555E-02
-4.943943E-02
-1.277024E-01
-1.963596E-01
1.190631E-01
1.680400E-01
-2.689383E-01
-3.346134E-01
-3.820378E-01
2.854056E-01
2.037845E-01
1.288243E-01
4.935000E-02
-2.629141E-02
-1.138460E-01
-1.576700E-01
-2.564536E-01
-2.896032E-01
-3.494192E-01
-3.785551E-01
-4.095664E-01
6.560517E-02
-2.314803E-02
-9.904044E-02
-1.758452E-01
-2.415806E-01
-3.169897E-01
-3.495152E-01
-4.177824E-01
1.680400E-01
1.190631E-01
2.691555E-02
-4.943943E-02
-1.277024E-01
-1.963596E-01
-2.689383E-01
-3.346134E-01
-3.820378E-01
-4.095664E-01
-4.358349E-01
-6.183764E-02
-1.114386E-01
-1.999276E-01
-2.676951E-01
-3.337641E-01
-3.852597E-01
-4.348972E-01
6.560517E-02
-2.314803E-02
-9.904044E-02
-1.758452E-01
-2.415806E-01
-3.169897E-01
-3.495152E-01
-4.177824E-01
-4.358349E-01
-4.692250E-01
-1.641830E-01
-2.465565E-01
-3.118272E-01
-3.742695E-01
-4.200914E-01
-4.718747E-01
-6.183764E-02
-1.114386E-01
-1.999276E-01
-2.676951E-01
-3.337641E-01
-3.852597E-01
-4.348972E-01
-4.692250E-01
-4.881499E-01
-2.823011E-01
-3.249749E-01
-3.963336E-01
-4.451966E-01
-4.890133E-01
-1.641830E-01
-2.465565E-01
-3.118272E-01
-3.742695E-01
-4.200914E-01
-4.718747E-01
-4.881499E-01
-5.155075E-01
-3.689759E-01
-4.324290E-01
-4.771411E-01
-5.157148E-01
-2.823011E-01
-3.249749E-01
-3.963336E-01
-4.451966E-01
-4.890133E-01
-5.155075E-01
-5.346470E-01
-4.597867E-01
-4.890367E-01
-5.324013E-01
-3.689759E-01
-4.324290E-01
-4.771411E-01
-5.157148E-01
-5.346470E-01
-5.549210E-01
-5.175955E-01
-5.524681E-01
-4.597867E-01
-4.890367E-01
-5.324013E-01
-5.549210E-01
-5.698146E-01
-5.672740E-01
-5.175955E-01
-5.524681E-01
-5.698146E-01
-5.786471E-01
-5.672740E-01
-5.786471E-01
-5.874158E-01
-5.874158E-01
