# vtk DataFile Version 2.0
Grille
ASCII
DATASET POLYDATA
POINTS 481 float
0.000000E+00 8.750000E-01 -9.076870E-01
6.250000E-02 8.750000E-01 -8.902460E-01
1.250000E-01 8.750000E-01 -8.385934E-01
1.250000E-01 9.375000E-01 -8.902460E-01
1.250000E-01 1.000000E+00 -9.076870E-01
6.250000E-02 1.000000E+00 -9.635954E-01
0.000000E+00 1.000000E+00 -9.824733E-01
0.000000E+00 9.375000E-01 -9.635954E-01
3.750000E-02 9.125000E-01 -9.390322E-01
8.125000E-02 9.187500E-01 -9.198387E-01
8.750000E-02 9.625000E-01 -9.390322E-01
4.375000E-02 9.562500E-01 -9.640299E-01
1.875000E-01 8.750000E-01 -7.547141E-01
2.500000E-01 8.750000E-01 -6.418316E-01
2.500000E-01 9.375000E-01 -6.813648E-01
2.500000E-01 1.000000E+00 -6.947135E-01
1.875000E-01 1.000000E+00 -8.168967E-01
1.625000E-01 9.125000E-01 -8.250205E-01
2.062500E-01 9.187500E-01 -7.579651E-01
2.125000E-01 9.625000E-01 -7.662049E-01
1.687500E-01 9.562500E-01 -8.396200E-01
0.000000E+00 7.500000E-01 -6.947135E-01
6.250000E-02 7.500000E-01 -6.813648E-01
1.250000E-01 7.500000E-01 -6.418316E-01
1.250000E-01 8.125000E-01 -7.547141E-01
0.000000E+00 8.125000E-01 -8.168967E-01
3.750000E-02 7.875000E-01 -7.662049E-01
8.125000E-02 7.937500E-01 -7.579651E-01
8.750000E-02 8.375000E-01 -8.250205E-01
4.375000E-02 8.312500E-01 -8.396200E-01
1.875000E-01 7.500000E-01 -5.776332E-01
2.500000E-01 7.500000E-01 -4.912367E-01
2.500000E-01 8.125000E-01 -5.776332E-01
1.625000E-01 7.875000E-01 -6.731768E-01
2.062500E-01 7.937500E-01 -6.245782E-01
2.125000E-01 8.375000E-01 -6.731768E-01
1.687500E-01 8.312500E-01 -7.312653E-01
3.125000E-01 8.750000E-01 -5.042839E-01
3.750000E-01 8.750000E-01 -3.473568E-01
3.750000E-01 9.375000E-01 -3.687520E-01
3.750000E-01 1.000000E+00 -3.759763E-01
3.125000E-01 1.000000E+00 -5.458329E-01
2.875000E-01 9.125000E-01 -5.854069E-01
3.312500E-01 9.187500E-01 -4.806983E-01
3.375000E-01 9.625000E-01 -4.767298E-01
2.937500E-01 9.562500E-01 -5.873854E-01
4.375000E-01 8.750000E-01 -1.770809E-01
5.000000E-01 8.750000E-01 -5.557980E-17
5.000000E-01 9.375000E-01 -5.900320E-17
5.000000E-01 1.000000E+00 -6.015914E-17
4.375000E-01 1.000000E+00 -1.916710E-01
4.125000E-01 9.125000E-01 -2.566704E-01
4.562500E-01 9.187500E-01 -1.302495E-01
4.625000E-01 9.625000E-01 -1.146769E-01
4.187500E-01 9.562500E-01 -2.457268E-01
3.125000E-01 7.500000E-01 -3.859622E-01
3.750000E-01 7.500000E-01 -2.658554E-01
3.750000E-01 8.125000E-01 -3.126128E-01
2.875000E-01 7.875000E-01 -4.776637E-01
3.312500E-01 7.937500E-01 -3.961048E-01
3.375000E-01 8.375000E-01 -4.188481E-01
2.937500E-01 8.312500E-01 -5.115822E-01
4.375000E-01 7.500000E-01 -1.355319E-01
5.000000E-01 7.500000E-01 -4.253894E-17
5.000000E-01 8.125000E-01 -5.002050E-17
4.125000E-01 7.875000E-01 -2.094307E-01
4.562500E-01 7.937500E-01 -1.073281E-01
4.625000E-01 8.375000E-01 -1.007535E-01
4.187500E-01 8.312500E-01 -2.140153E-01
0.000000E+00 6.250000E-01 -3.759763E-01
6.250000E-02 6.250000E-01 -3.687520E-01
1.250000E-01 6.250000E-01 -3.473568E-01
1.250000E-01 6.875000E-01 -5.042839E-01
0.000000E+00 6.875000E-01 -5.458329E-01
3.750000E-02 6.625000E-01 -4.767298E-01
8.125000E-02 6.687500E-01 -4.806983E-01
8.750000E-02 7.125000E-01 -5.854069E-01
4.375000E-02 7.062500E-01 -5.873854E-01
1.875000E-01 6.250000E-01 -3.126128E-01
2.500000E-01 6.250000E-01 -2.658554E-01
2.500000E-01 6.875000E-01 -3.859622E-01
1.625000E-01 6.625000E-01 -4.188481E-01
2.062500E-01 6.687500E-01 -3.961048E-01
2.125000E-01 7.125000E-01 -4.776637E-01
1.687500E-01 7.062500E-01 -5.115822E-01
0.000000E+00 5.000000E-01 6.015914E-17
6.250000E-02 5.000000E-01 5.900320E-17
1.250000E-01 5.000000E-01 5.557980E-17
1.250000E-01 5.625000E-01 -1.770809E-01
0.000000E+00 5.625000E-01 -1.916710E-01
3.750000E-02 5.375000E-01 -1.146769E-01
8.125000E-02 5.437500E-01 -1.302495E-01
8.750000E-02 5.875000E-01 -2.566704E-01
4.375000E-02 5.812500E-01 -2.457268E-01
1.875000E-01 5.000000E-01 5.002050E-17
2.500000E-01 5.000000E-01 4.253894E-17
2.500000E-01 5.625000E-01 -1.355319E-01
1.625000E-01 5.375000E-01 -1.007535E-01
2.062500E-01 5.437500E-01 -1.073281E-01
2.125000E-01 5.875000E-01 -2.094307E-01
1.687500E-01 5.812500E-01 -2.140153E-01
3.125000E-01 6.250000E-01 -2.088812E-01
3.750000E-01 6.250000E-01 -1.438799E-01
3.750000E-01 6.875000E-01 -2.088812E-01
2.875000E-01 6.625000E-01 -2.972006E-01
3.312500E-01 6.687500E-01 -2.512080E-01
3.375000E-01 7.125000E-01 -2.972006E-01
2.937500E-01 7.062500E-01 -3.578952E-01
4.375000E-01 6.250000E-01 -7.334933E-02
5.000000E-01 6.250000E-01 -2.302191E-17
5.000000E-01 6.875000E-01 -3.342263E-17
4.125000E-01 6.625000E-01 -1.303070E-01
4.562500E-01 6.687500E-01 -6.806703E-02
4.625000E-01 7.125000E-01 -7.149133E-02
4.187500E-01 7.062500E-01 -1.497219E-01
3.125000E-01 5.000000E-01 3.342263E-17
3.750000E-01 5.000000E-01 2.302191E-17
3.750000E-01 5.625000E-01 -7.334933E-02
2.875000E-01 5.375000E-01 -7.149133E-02
3.312500E-01 5.437500E-01 -6.806703E-02
3.375000E-01 5.875000E-01 -1.303070E-01
2.937500E-01 5.812500E-01 -1.497219E-01
4.375000E-01 5.000000E-01 1.173647E-17
5.000000E-01 5.000000E-01 3.683685E-33
5.000000E-01 5.625000E-01 -1.173647E-17
4.125000E-01 5.375000E-01 -3.134523E-02
4.562500E-01 5.437500E-01 -1.844336E-02
4.625000E-01 5.875000E-01 -3.134523E-02
4.187500E-01 5.812500E-01 -6.263464E-02
5.625000E-01 8.750000E-01 1.770809E-01
6.250000E-01 8.750000E-01 3.473568E-01
6.250000E-01 9.375000E-01 3.687520E-01
6.250000E-01 1.000000E+00 3.759763E-01
5.625000E-01 1.000000E+00 1.916710E-01
5.375000E-01 9.125000E-01 1.111418E-01
5.812500E-01 9.187500E-01 2.400287E-01
5.875000E-01 9.625000E-01 2.648345E-01
5.437500E-01 9.562500E-01 1.333415E-01
6.875000E-01 8.750000E-01 5.042839E-01
7.500000E-01 8.750000E-01 6.418316E-01
7.500000E-01 9.375000E-01 6.813648E-01
7.500000E-01 1.000000E+00 6.947135E-01
6.875000E-01 1.000000E+00 5.458329E-01
6.625000E-01 9.125000E-01 4.620337E-01
7.062500E-01 9.187500E-01 5.737646E-01
7.125000E-01 9.625000E-01 6.040272E-01
6.687500E-01 9.562500E-01 4.921098E-01
5.625000E-01 7.500000E-01 1.355319E-01
6.250000E-01 7.500000E-01 2.658554E-01
6.250000E-01 8.125000E-01 3.126128E-01
5.375000E-01 7.875000E-01 9.068632E-02
5.812500E-01 7.937500E-01 1.977883E-01
5.875000E-01 8.375000E-01 2.326799E-01
5.437500E-01 8.312500E-01 1.161335E-01
6.875000E-01 7.500000E-01 3.859622E-01
7.500000E-01 7.500000E-01 4.912367E-01
7.500000E-01 8.125000E-01 5.776332E-01
6.625000E-01 7.875000E-01 3.769971E-01
7.062500E-01 7.937500E-01 4.727933E-01
7.125000E-01 8.375000E-01 5.306898E-01
6.687500E-01 8.312500E-01 4.286020E-01
8.125000E-01 8.750000E-01 7.547141E-01
8.750000E-01 8.750000E-01 8.385934E-01
8.750000E-01 9.375000E-01 8.902460E-01
8.750000E-01 1.000000E+00 9.076870E-01
8.125000E-01 1.000000E+00 8.168967E-01
7.875000E-01 9.125000E-01 7.425852E-01
8.312500E-01 9.187500E-01 8.201501E-01
8.375000E-01 9.625000E-01 8.512623E-01
7.937500E-01 9.562500E-01 7.759588E-01
9.375000E-01 8.750000E-01 8.902460E-01
1.000000E+00 8.750000E-01 9.076870E-01
1.000000E+00 9.375000E-01 9.635954E-01
1.000000E+00 1.000000E+00 9.824733E-01
9.375000E-01 1.000000E+00 9.635954E-01
9.125000E-01 9.125000E-01 9.100848E-01
9.562500E-01 9.187500E-01 9.416751E-01
9.625000E-01 9.625000E-01 9.689004E-01
9.187500E-01 9.562500E-01 9.416751E-01
8.125000E-01 7.500000E-01 5.776332E-01
8.750000E-01 7.500000E-01 6.418316E-01
8.750000E-01 8.125000E-01 7.547141E-01
7.875000E-01 7.875000E-01 6.059136E-01
8.312500E-01 7.937500E-01 6.758198E-01
8.375000E-01 8.375000E-01 7.479071E-01
7.937500E-01 8.312500E-01 6.758198E-01
9.375000E-01 7.500000E-01 6.813648E-01
1.000000E+00 7.500000E-01 6.947135E-01
1.000000E+00 8.125000E-01 8.168967E-01
9.125000E-01 7.875000E-01 7.425852E-01
9.562500E-01 7.937500E-01 7.759588E-01
9.625000E-01 8.375000E-01 8.512623E-01
9.187500E-01 8.312500E-01 8.201501E-01
5.625000E-01 6.250000E-01 7.334933E-02
6.250000E-01 6.250000E-01 1.438799E-01
6.250000E-01 6.875000E-01 2.088812E-01
5.375000E-01 6.625000E-01 5.642469E-02
5.812500E-01 6.687500E-01 1.254365E-01
5.875000E-01 7.125000E-01 1.651018E-01
5.437500E-01 7.062500E-01 8.124525E-02
6.875000E-01 6.250000E-01 2.088812E-01
7.500000E-01 6.250000E-01 2.658554E-01
7.500000E-01 6.875000E-01 3.859622E-01
6.625000E-01 6.625000E-01 2.345662E-01
7.062500E-01 6.687500E-01 2.998435E-01
7.125000E-01 7.125000E-01 3.765597E-01
6.687500E-01 7.062500E-01 2.998435E-01
5.625000E-01 5.000000E-01 -1.173647E-17
6.250000E-01 5.000000E-01 -2.302191E-17
6.250000E-01 5.625000E-01 7.334933E-02
5.375000E-01 5.375000E-01 1.357291E-02
5.812500E-01 5.437500E-01 3.398814E-02
5.875000E-01 5.875000E-01 7.238855E-02
5.437500E-01 5.812500E-01 3.398814E-02
6.875000E-01 5.000000E-01 -3.342263E-17
7.500000E-01 5.000000E-01 -4.253894E-17
7.500000E-01 5.625000E-01 1.355319E-01
6.625000E-01 5.375000E-01 5.642469E-02
7.062500E-01 5.437500E-01 8.124525E-02
7.125000E-01 5.875000E-01 1.651018E-01
6.687500E-01 5.812500E-01 1.254365E-01
8.125000E-01 6.250000E-01 3.126128E-01
8.750000E-01 6.250000E-01 3.473568E-01
8.750000E-01 6.875000E-01 5.042839E-01
7.875000E-01 6.625000E-01 3.769971E-01
8.312500E-01 6.687500E-01 4.286020E-01
8.375000E-01 7.125000E-01 5.306898E-01
7.937500E-01 7.062500E-01 4.727933E-01
9.375000E-01 6.250000E-01 3.687520E-01
1.000000E+00 6.250000E-01 3.759763E-01
1.000000E+00 6.875000E-01 5.458329E-01
9.125000E-01 6.625000E-01 4.620337E-01
9.562500E-01 6.687500E-01 4.921098E-01
9.625000E-01 7.125000E-01 6.040272E-01
9.187500E-01 7.062500E-01 5.737646E-01
8.125000E-01 5.000000E-01 -5.002050E-17
8.750000E-01 5.000000E-01 -5.557980E-17
8.750000E-01 5.625000E-01 1.770809E-01
7.875000E-01 5.375000E-01 9.068632E-02
8.312500E-01 5.437500E-01 1.161335E-01
8.375000E-01 5.875000E-01 2.326799E-01
7.937500E-01 5.812500E-01 1.977883E-01
9.375000E-01 5.000000E-01 -5.900320E-17
1.000000E+00 5.000000E-01 -6.015914E-17
1.000000E+00 5.625000E-01 1.916710E-01
9.125000E-01 5.375000E-01 1.111418E-01
9.562500E-01 5.437500E-01 1.333415E-01
9.625000E-01 5.875000E-01 2.648345E-01
9.187500E-01 5.812500E-01 2.400287E-01
0.000000E+00 3.750000E-01 3.759763E-01
6.250000E-02 3.750000E-01 3.687520E-01
[...]
CELL_DATA 896
SCALARS sol float 1
LOOKUP_TABLE default
-9.123217E-01
-9.163723E-01
-9.367715E-01
-8.791843E-01
-9.409669E-01
-8.828927E-01
-9.555525E-01
-8.547345E-01
-8.516288E-01
-9.409669E-01
-8.828927E-01
-8.512867E-01
-9.700329E-01
-8.075738E-01
-8.075352E-01
-9.555525E-01
-9.163723E-01
-8.512867E-01
-8.061094E-01
-9.700329E-01
-7.879300E-01
-7.592717E-01
-7.792333E-01
-9.367715E-01
-9.123217E-01
-8.061094E-01
-8.516288E-01
-7.748576E-01
-7.351783E-01
-7.140944E-01
-7.181703E-01
-8.791843E-01
-7.792333E-01
-7.748576E-01
-8.075352E-01
-7.197188E-01
-6.937205E-01
-6.544879E-01
-6.899075E-01
-8.547345E-01
-7.181703E-01
-7.197188E-01
-7.879300E-01
-6.763401E-01
-6.362011E-01
-6.093106E-01
-6.180524E-01
-6.308806E-01
-8.075738E-01
-6.937205E-01
-6.899075E-01
-6.763401E-01
-7.351783E-01
-6.251294E-01
-5.771741E-01
-5.366494E-01
-5.511635E-01
-5.770157E-01
-7.592717E-01
-6.362011E-01
-6.308806E-01
-6.251294E-01
-7.140944E-01
-5.644827E-01
-5.234630E-01
-5.525659E-01
-5.149378E-01
-4.661797E-01
-5.222930E-01
-5.771741E-01
-6.180524E-01
-5.770157E-01
-5.644827E-01
-6.544879E-01
-5.155112E-01
-4.441130E-01
-4.782380E-01
-4.420600E-01
-4.071527E-01
-4.617836E-01
-5.234630E-01
-5.525659E-01
-5.511635E-01
-5.222930E-01
-5.155112E-01
-6.093106E-01
-4.516209E-01
-3.989357E-01
-4.234962E-01
-4.421784E-01
-3.301517E-01
-4.199102E-01
-4.441130E-01
-4.782380E-01
-5.149378E-01
-4.617836E-01
-4.516209E-01
-5.366494E-01
-4.116980E-01
-3.242597E-01
-3.596059E-01
-3.758553E-01
-2.711247E-01
-2.903831E-01
-3.493074E-01
-3.989357E-01
-4.234962E-01
-4.421784E-01
-4.420600E-01
-4.199102E-01
-4.116980E-01
-4.661797E-01
-3.470193E-01
-2.603694E-01
-2.913283E-01
-3.248577E-01
-1.840249E-01
-2.108822E-01
-3.163394E-01
-3.242597E-01
-3.596059E-01
-3.758553E-01
-4.071527E-01
-3.493074E-01
-3.470193E-01
-3.021012E-01
-2.461510E-01
-1.880003E-01
-2.453529E-01
-2.626330E-01
-1.635511E-01
-1.021160E-01
-2.573124E-01
-2.603694E-01
-2.903831E-01
-2.913283E-01
-3.248577E-01
-3.301517E-01
-3.163394E-01
-3.021012E-01
-2.524299E-01
-1.639499E-01
-1.024435E-01
-1.769247E-01
-2.036060E-01
-8.164212E-02
-3.822564E-02
-2.081528E-01
-1.880003E-01
-2.461510E-01
-2.108822E-01
-2.453529E-01
-2.626330E-01
-2.711247E-01
-2.573124E-01
-2.524299E-01
-2.013230E-01
-1.406990E-01
-9.261149E-02
-4.341648E-02
-1.507636E-01
-1.837030E-01
4.444717E-02
-1.629700E-01
-1.024435E-01
-1.639499E-01
-1.635511E-01
-1.769247E-01
-2.036060E-01
-1.840249E-01
-2.081528E-01
-2.013230E-01
-1.610227E-01
-6.936055E-02
-3.358451E-02
3.704726E-02
-8.095333E-02
-1.189150E-01
1.083375E-01
8.149443E-02
-1.160320E-01
-4.341648E-02
-9.261149E-02
-1.406990E-01
-8.164212E-02
-1.507636E-01
-1.837030E-01
-1.021160E-01
-1.629700E-01
-1.610227E-01
-1.158454E-01
-3.577604E-02
3.871117E-02
9.607424E-02
-6.900774E-02
-9.642674E-02
1.966157E-01
1.615040E-01
-9.057445E-02
3.704726E-02
-3.358451E-02
-6.936055E-02
-3.822564E-02
-8.095333E-02
-1.189150E-01
-1.160320E-01
-1.158454E-01
-9.328795E-02
3.022877E-02
9.773815E-02
6.893994E-02
1.760838E-01
-2.383044E-02
-4.651945E-02
2.127349E-01
2.774939E-01
-4.713879E-02
9.607424E-02
8.149443E-02
3.871117E-02
-3.577604E-02
4.444717E-02
-6.900774E-02
-9.642674E-02
-9.057445E-02
-9.328795E-02
-5.577640E-02
7.540607E-02
1.752981E-01
1.348694E-01
2.548221E-01
2.708175E-02
-2.268901E-02
2.912050E-01
3.365209E-01
-3.489819E-02
1.760838E-01
9.773815E-02
1.615040E-01
6.893994E-02
3.022877E-02
1.083375E-01
-2.383044E-02
-4.651945E-02
-4.713879E-02
-5.577640E-02
-3.747441E-02
7.225905E-02
1.413355E-01
1.822006E-01
2.523725E-01
3.187125E-01
4.588998E-02
1.880823E-02
4.122793E-01
-1.044841E-02
2.548221E-01
1.752981E-01
2.127349E-01
1.348694E-01
7.540607E-02
1.966157E-01
2.708175E-02
-2.268901E-02
-3.489819E-02
-3.747441E-02
-1.659620E-02
1.272930E-01
1.997252E-01
2.476937E-01
2.975498E-01
3.927141E-01
8.770215E-02
4.325801E-02
4.713063E-01
4.409651E-01
1.132938E-02
3.187125E-01
2.523725E-01
1.822006E-01
2.912050E-01
1.413355E-01
7.225905E-02
2.774939E-01
4.588998E-02
1.880823E-02
-1.044841E-02
-1.659620E-02
-6.147788E-03
1.239279E-01
1.888297E-01
2.587522E-01
3.628572E-01
4.378914E-01
8.507018E-02
3.577916E-02
5.473233E-01
5.093027E-01
1.585368E-02
3.927141E-01
2.975498E-01
2.476937E-01
3.365209E-01
1.997252E-01
1.272930E-01
8.770215E-02
4.325801E-02
1.132938E-02
-6.147788E-03
4.524303E-03
1.664732E-01
2.132795E-01
3.184884E-01
4.267476E-01
3.727373E-01
5.133607E-01
1.142219E-01
5.990867E-02
5.566339E-01
6.148579E-01
2.718306E-02
4.378914E-01
4.409651E-01
3.628572E-01
2.587522E-01
4.122793E-01
1.888297E-01
1.239279E-01
8.507018E-02
3.577916E-02
1.585368E-02
4.524303E-03
4.524303E-03
1.593992E-01
2.581934E-01
3.429382E-01
4.878586E-01
4.261308E-01
5.732934E-01
9.653926E-02
4.678827E-02
6.197189E-01
6.600352E-01
1.585368E-02
5.133607E-01
4.267476E-01
5.093027E-01
3.727373E-01
3.184884E-01
4.713063E-01
2.132795E-01
1.664732E-01
1.142219E-01
5.990867E-02
2.718306E-02
4.524303E-03
-6.147788E-03
1.957758E-01
3.172203E-01
2.477636E-01
4.119175E-01
4.773617E-01
5.589351E-01
6.323203E-01
9.653926E-02
5.990867E-02
7.173457E-01
1.132938E-02
5.732934E-01
4.878586E-01
5.566339E-01
4.261308E-01
3.429382E-01
5.473233E-01
2.581934E-01
1.593992E-01
9.653926E-02
4.678827E-02
1.585368E-02
-6.147788E-03
-1.659620E-02
1.957758E-01
3.541218E-01
2.780844E-01
4.499974E-01
5.270388E-01
5.833849E-01
6.885939E-01
1.142219E-01
3.577916E-02
7.625230E-01
7.333029E-01
-1.044841E-02
6.323203E-01
5.589351E-01
4.773617E-01
6.197189E-01
4.119175E-01
3.172203E-01
6.148579E-01
2.477636E-01
1.957758E-01
9.653926E-02
5.990867E-02
1.132938E-02
-1.659620E-02
-3.747441E-02
1.593992E-01
2.477636E-01
3.254156E-01
4.179195E-01
5.138877E-01
6.317615E-01
7.130436E-01
8.507018E-02
4.325801E-02
8.147059E-01
7.795647E-01
-3.489819E-02
6.885939E-01
5.833849E-01
5.270388E-01
6.600352E-01
4.499974E-01
3.541218E-01
2.780844E-01
1.957758E-01
1.142219E-01
3.577916E-02
-1.044841E-02
-3.747441E-02
-5.577640E-02
1.664732E-01
2.581934E-01
3.541218E-01
4.179195E-01
5.582611E-01
6.907885E-01
6.197888E-01
7.724831E-01
8.770215E-02
1.880823E-02
8.157904E-01
8.586153E-01
-4.713879E-02
7.130436E-01
7.333029E-01
6.317615E-01
5.138877E-01
7.173457E-01
4.179195E-01
3.254156E-01
2.477636E-01
1.593992E-01
8.507018E-02
4.325801E-02
-3.489819E-02
-5.577640E-02
-9.328795E-02
1.239279E-01
2.132795E-01
3.172203E-01
4.499974E-01
5.582611E-01
7.261470E-01
6.525177E-01
8.044859E-01
4.588998E-02
-2.268901E-02
8.538861E-01
8.830651E-01
-9.057445E-02
7.724831E-01
6.907885E-01
7.795647E-01
6.197888E-01
5.582611E-01
7.625230E-01
4.179195E-01
3.541218E-01
2.581934E-01
1.664732E-01
8.770215E-02
1.880823E-02
-4.713879E-02
-9.328795E-02
-1.158454E-01
1.272930E-01
1.888297E-01
3.429382E-01
5.138877E-01
4.119175E-01
6.197888E-01
6.998489E-01
7.804049E-01
8.496632E-01
2.708175E-02
-4.651945E-02
9.132027E-01
-1.160320E-01
8.044859E-01
7.261470E-01
8.157904E-01
6.525177E-01
5.582611E-01
8.147059E-01
4.499974E-01
3.172203E-01
2.132795E-01
1.239279E-01
4.588998E-02
-2.268901E-02
-9.057445E-02
-1.158454E-01
-1.610227E-01
7.225905E-02
1.997252E-01
3.184884E-01
5.270388E-01
4.261308E-01
6.317615E-01
7.261470E-01
7.804049E-01
8.796414E-01
-2.383044E-02
-9.642674E-02
9.376525E-01
9.140020E-01
-1.629700E-01
8.496632E-01
7.804049E-01
6.998489E-01
8.538861E-01
6.197888E-01
5.138877E-01
8.586153E-01
4.119175E-01
3.429382E-01
1.888297E-01
1.272930E-01
2.708175E-02
-4.651945E-02
-1.160320E-01
-1.610227E-01
-2.013230E-01
7.540607E-02
2.587522E-01
1.413355E-01
3.727373E-01
4.773617E-01
5.833849E-01
6.907885E-01
8.044859E-01
8.796414E-01
-6.900774E-02
-1.189150E-01
9.580570E-01
9.311450E-01
-2.081528E-01
8.796414E-01
7.804049E-01
7.261470E-01
8.830651E-01
6.317615E-01
5.270388E-01
4.261308E-01
3.184884E-01
1.997252E-01
7.225905E-02
-2.383044E-02
-9.642674E-02
-1.629700E-01
-2.013230E-01
-2.524299E-01
3.022877E-02
2.476937E-01
1.348694E-01
3.628572E-01
4.878586E-01
5.589351E-01
7.130436E-01
8.496632E-01
7.724831E-01
9.140020E-01
-8.095333E-02
-1.837030E-01
9.507502E-01
9.716564E-01
-2.573124E-01
8.796414E-01
9.140020E-01
8.044859E-01
6.907885E-01
9.132027E-01
5.833849E-01
4.773617E-01
3.727373E-01
2.587522E-01
1.413355E-01
7.540607E-02
-6.900774E-02
-1.189150E-01
-2.081528E-01
-2.524299E-01
-3.021012E-01
6.893994E-02
-3.577604E-02
1.822006E-01
2.975498E-01
4.267476E-01
5.732934E-01
6.885939E-01
8.538861E-01
7.795647E-01
9.132027E-01
-1.507636E-01
-2.036060E-01
9.580570E-01
9.716564E-01
-3.163394E-01
9.140020E-01
8.496632E-01
9.311450E-01
7.724831E-01
7.130436E-01
9.376525E-01
5.589351E-01
4.878586E-01
3.628572E-01
2.476937E-01
1.348694E-01
3.022877E-02
-8.095333E-02
-1.837030E-01
-2.573124E-01
-3.021012E-01
-3.470193E-01
3.871117E-02
-6.936055E-02
1.752981E-01
2.523725E-01
4.378914E-01
6.323203E-01
5.133607E-01
7.333029E-01
8.157904E-01
8.830651E-01
9.376525E-01
-1.769247E-01
-2.626330E-01
-3.493074E-01
9.132027E-01
8.538861E-01
9.507502E-01
7.795647E-01
6.885939E-01
9.580570E-01
5.732934E-01
4.267476E-01
2.975498E-01
1.822006E-01
6.893994E-02
-3.577604E-02
-1.507636E-01
-2.036060E-01
-3.163394E-01
-3.470193E-01
-4.116980E-01
9.773815E-02
-3.358451E-02
-1.406990E-01
2.548221E-01
3.927141E-01
6.197189E-01
5.093027E-01
7.173457E-01
8.147059E-01
8.586153E-01
-2.453529E-01
-3.248577E-01
-4.199102E-01
9.376525E-01
8.830651E-01
8.157904E-01
9.580570E-01
7.333029E-01
6.323203E-01
9.716564E-01
5.133607E-01
4.378914E-01
2.523725E-01
1.752981E-01
3.871117E-02
-6.936055E-02
-1.769247E-01
-2.626330E-01
-3.493074E-01
-4.116980E-01
-4.516209E-01
9.607424E-02
-9.261149E-02
-1.639499E-01
3.187125E-01
1.760838E-01
4.409651E-01
5.566339E-01
6.600352E-01
7.625230E-01
-2.913283E-01
-3.758553E-01
-4.617836E-01
8.586153E-01
8.147059E-01
9.716564E-01
7.173457E-01
6.197189E-01
5.093027E-01
3.927141E-01
2.548221E-01
9.773815E-02
-3.358451E-02
-1.406990E-01
-2.453529E-01
-3.248577E-01
-4.199102E-01
-4.516209E-01
-5.155112E-01
3.704726E-02
-1.024435E-01
-2.461510E-01
2.912050E-01
1.615040E-01
4.122793E-01
5.473233E-01
6.148579E-01
-3.596059E-01
-4.421784E-01
-5.222930E-01
7.625230E-01
6.600352E-01
5.566339E-01
4.409651E-01
3.187125E-01
1.760838E-01
9.607424E-02
-9.261149E-02
-1.639499E-01
-2.913283E-01
-3.758553E-01
-4.617836E-01
-5.155112E-01
-5.644827E-01
8.149443E-02
-4.341648E-02
-1.880003E-01
-2.603694E-01
2.127349E-01
3.365209E-01
4.713063E-01
-4.234962E-01
-4.782380E-01
-5.770157E-01
6.148579E-01
5.473233E-01
4.122793E-01
2.912050E-01
1.615040E-01
3.704726E-02
-1.024435E-01
-2.461510E-01
-3.596059E-01
-4.421784E-01
-5.222930E-01
-5.644827E-01
-6.251294E-01
4.444717E-02
-8.164212E-02
-2.108822E-01
-3.242597E-01
1.966157E-01
2.774939E-01
-4.441130E-01
-5.525659E-01
-6.308806E-01
4.713063E-01
3.365209E-01
2.127349E-01
8.149443E-02
-4.341648E-02
-1.880003E-01
-2.603694E-01
-4.234962E-01
-4.782380E-01
-5.770157E-01
-6.251294E-01
-6.763401E-01
1.083375E-01
-3.822564E-02
-1.635511E-01
-2.903831E-01
-3.989357E-01
-5.234630E-01
-5.771741E-01
-6.899075E-01
2.774939E-01
1.966157E-01
4.444717E-02
-8.164212E-02
-2.108822E-01
-3.242597E-01
-4.441130E-01
-5.525659E-01
-6.308806E-01
-6.763401E-01
-7.197188E-01
-1.021160E-01
-1.840249E-01
-3.301517E-01
-4.420600E-01
-5.511635E-01
-6.362011E-01
-7.181703E-01
1.083375E-01
-3.822564E-02
-1.635511E-01
-2.903831E-01
-3.989357E-01
-5.234630E-01
-5.771741E-01
-6.899075E-01
-7.197188E-01
-7.748576E-01
-2.711247E-01
-4.071527E-01
-5.149378E-01
-6.180524E-01
-6.937205E-01
-7.792333E-01
-1.021160E-01
-1.840249E-01
-3.301517E-01
-4.420600E-01
-5.511635E-01
-6.362011E-01
-7.181703E-01
-7.748576E-01
-8.061094E-01
-4.661797E-01
-5.366494E-01
-6.544879E-01
-7.351783E-01
-8.075352E-01
-2.711247E-01
-4.071527E-01
-5.149378E-01
-6.180524E-01
-6.937205E-01
-7.792333E-01
-8.061094E-01
-8.512867E-01
-6.093106E-01
-7.140944E-01
-7.879300E-01
-8.516288E-01
-4.661797E-01
-5.366494E-01
-6.544879E-01
-7.351783E-01
-8.075352E-01
-8.512867E-01
-8.828927E-01
-7.592717E-01
-8.075738E-01
-8.791843E-01
-6.093106E-01
-7.140944E-01
-7.879300E-01
-8.516288E-01
-8.828927E-01
-9.163723E-01
-8.547345E-01
-9.123217E-01
-7.592717E-01
-8.075738E-01
-8.791843E-01
-9.163723E-01
-9.409669E-01
-9.367715E-01
-8.547345E-01
-9.123217E-01
-9.409669E-01
-9.555525E-01
-9.367715E-01
-9.555525E-01
-9.700329E-01
-9.700329E-01
