# vtk DataFile Version 2.0
Grille
ASCII
DATASET POLYDATA
POINTS 481 float
0.000000E+00 8.750000E-01 -7.319767E-01
6.250000E-02 8.750000E-01 -7.179120E-01
1.250000E-01 8.750000E-01 -6.762583E-01
1.250000E-01 9.375000E-01 -7.179120E-01
1.250000E-01 1.000000E+00 -7.319767E-01
6.250000E-02 1.000000E+00 -7.770623E-01
0.000000E+00 1.000000E+00 -7.922859E-01
0.000000E+00 9.375000E-01 -7.770623E-01
3.750000E-02 9.125000E-01 -7.572541E-01
8.125000E-02 9.187500E-01 -7.417761E-01
8.750000E-02 9.625000E-01 -7.572541E-01
4.375000E-02 9.562500E-01 -7.774128E-01
1.875000E-01 8.750000E-01 -6.086164E-01
2.500000E-01 8.750000E-01 -5.175857E-01
2.500000E-01 9.375000E-01 -5.494660E-01
2.500000E-01 1.000000E+00 -5.602307E-01
1.875000E-01 1.000000E+00 -6.587616E-01
1.625000E-01 9.125000E-01 -6.653128E-01
2.062500E-01 9.187500E-01 -6.112380E-01
2.125000E-01 9.625000E-01 -6.178827E-01
1.687500E-01 9.562500E-01 -6.770861E-01
0.000000E+00 7.500000E-01 -5.602307E-01
6.250000E-02 7.500000E-01 -5.494660E-01
1.250000E-01 7.500000E-01 -5.175857E-01
1.250000E-01 8.125000E-01 -6.086164E-01
0.000000E+00 8.125000E-01 -6.587616E-01
3.750000E-02 7.875000E-01 -6.178827E-01
8.125000E-02 7.937500E-01 -6.112380E-01
8.750000E-02 8.375000E-01 -6.653128E-01
4.375000E-02 8.312500E-01 -6.770861E-01
1.875000E-01 7.500000E-01 -4.658148E-01
2.500000E-01 7.500000E-01 -3.961429E-01
2.500000E-01 8.125000E-01 -4.658148E-01
1.625000E-01 7.875000E-01 -5.428631E-01
2.062500E-01 7.937500E-01 -5.036721E-01
2.125000E-01 8.375000E-01 -5.428631E-01
1.687500E-01 8.312500E-01 -5.897068E-01
3.125000E-01 8.750000E-01 -4.066645E-01
3.750000E-01 8.750000E-01 -2.801154E-01
3.750000E-01 9.375000E-01 -2.973689E-01
3.750000E-01 1.000000E+00 -3.031947E-01
3.125000E-01 1.000000E+00 -4.401704E-01
2.875000E-01 9.125000E-01 -4.720837E-01
3.312500E-01 9.187500E-01 -3.876446E-01
3.375000E-01 9.625000E-01 -3.844443E-01
2.937500E-01 9.562500E-01 -4.736792E-01
4.375000E-01 8.750000E-01 -1.428016E-01
5.000000E-01 8.750000E-01 -4.482065E-17
5.000000E-01 9.375000E-01 -4.758134E-17
5.000000E-01 1.000000E+00 -4.851352E-17
4.375000E-01 1.000000E+00 -1.545673E-01
4.125000E-01 9.125000E-01 -2.069841E-01
4.562500E-01 9.187500E-01 -1.050357E-01
4.625000E-01 9.625000E-01 -9.247773E-02
4.187500E-01 9.562500E-01 -1.981589E-01
3.125000E-01 7.500000E-01 -3.112475E-01
3.750000E-01 7.500000E-01 -2.143910E-01
3.750000E-01 8.125000E-01 -2.520972E-01
2.875000E-01 7.875000E-01 -3.851975E-01
3.312500E-01 7.937500E-01 -3.194267E-01
3.375000E-01 8.375000E-01 -3.377674E-01
2.937500E-01 8.312500E-01 -4.125500E-01
4.375000E-01 7.500000E-01 -1.092956E-01
5.000000E-01 7.500000E-01 -3.430424E-17
5.000000E-01 8.125000E-01 -4.033752E-17
4.125000E-01 7.875000E-01 -1.688890E-01
4.562500E-01 7.937500E-01 -8.655150E-02
4.625000E-01 8.375000E-01 -8.124964E-02
4.187500E-01 8.312500E-01 -1.725861E-01
0.000000E+00 6.250000E-01 -3.031947E-01
6.250000E-02 6.250000E-01 -2.973689E-01
1.250000E-01 6.250000E-01 -2.801154E-01
1.250000E-01 6.875000E-01 -4.066645E-01
0.000000E+00 6.875000E-01 -4.401704E-01
3.750000E-02 6.625000E-01 -3.844443E-01
8.125000E-02 6.687500E-01 -3.876446E-01
8.750000E-02 7.125000E-01 -4.720837E-01
4.375000E-02 7.062500E-01 -4.736792E-01
1.875000E-01 6.250000E-01 -2.520972E-01
2.500000E-01 6.250000E-01 -2.143910E-01
2.500000E-01 6.875000E-01 -3.112475E-01
1.625000E-01 6.625000E-01 -3.377674E-01
2.062500E-01 6.687500E-01 -3.194267E-01
2.125000E-01 7.125000E-01 -3.851975E-01
1.687500E-01 7.062500E-01 -4.125500E-01
0.000000E+00 5.000000E-01 4.851352E-17
6.250000E-02 5.000000E-01 4.758134E-17
1.250000E-01 5.000000E-01 4.482065E-17
1.250000E-01 5.625000E-01 -1.428016E-01
0.000000E+00 5.625000E-01 -1.545673E-01
3.750000E-02 5.375000E-01 -9.247773E-02
8.125000E-02 5.437500E-01 -1.050357E-01
8.750000E-02 5.875000E-01 -2.069841E-01
4.375000E-02 5.812500E-01 -1.981589E-01
1.875000E-01 5.000000E-01 4.033752E-17
2.500000E-01 5.000000E-01 3.430424E-17
2.500000E-01 5.625000E-01 -1.092956E-01
1.625000E-01 5.375000E-01 -8.124964E-02
2.062500E-01 5.437500E-01 -8.655150E-02
2.125000E-01 5.875000E-01 -1.688890E-01
1.687500E-01 5.812500E-01 -1.725861E-01
3.125000E-01 6.250000E-01 -1.684459E-01
3.750000E-01 6.250000E-01 -1.160276E-01
3.750000E-01 6.875000E-01 -1.684459E-01
2.875000E-01 6.625000E-01 -2.396684E-01
3.312500E-01 6.687500E-01 -2.025791E-01
3.375000E-01 7.125000E-01 -2.396684E-01
2.937500E-01 7.062500E-01 -2.886137E-01
4.375000E-01 6.250000E-01 -5.915035E-02
5.000000E-01 6.250000E-01 -1.856532E-17
5.000000E-01 6.875000E-01 -2.695267E-17
4.125000E-01 6.625000E-01 -1.050821E-01
4.562500E-01 6.687500E-01 -5.489059E-02
4.625000E-01 7.125000E-01 -5.765202E-02
4.187500E-01 7.062500E-01 -1.207387E-01
3.125000E-01 5.000000E-01 2.695267E-17
3.750000E-01 5.000000E-01 1.856532E-17
3.750000E-01 5.625000E-01 -5.915035E-02
2.875000E-01 5.375000E-01 -5.765202E-02
3.312500E-01 5.437500E-01 -5.489059E-02
3.375000E-01 5.875000E-01 -1.050821E-01
2.937500E-01 5.812500E-01 -1.207387E-01
4.375000E-01 5.000000E-01 9.464518E-18
5.000000E-01 5.000000E-01 2.970596E-33
5.000000E-01 5.625000E-01 -9.464518E-18
4.125000E-01 5.375000E-01 -2.527741E-02
4.562500E-01 5.437500E-01 -1.487309E-02
4.625000E-01 5.875000E-01 -2.527741E-02
4.187500E-01 5.812500E-01 -5.050981E-02
5.625000E-01 8.750000E-01 1.428016E-01
6.250000E-01 8.750000E-01 2.801154E-01
6.250000E-01 9.375000E-01 2.973689E-01
6.250000E-01 1.000000E+00 3.031947E-01
5.625000E-01 1.000000E+00 1.545673E-01
5.375000E-01 9.125000E-01 8.962693E-02
5.812500E-01 9.187500E-01 1.935639E-01
5.875000E-01 9.625000E-01 2.135677E-01
5.437500E-01 9.562500E-01 1.075292E-01
6.875000E-01 8.750000E-01 4.066645E-01
7.500000E-01 8.750000E-01 5.175857E-01
7.500000E-01 9.375000E-01 5.494660E-01
7.500000E-01 1.000000E+00 5.602307E-01
6.875000E-01 1.000000E+00 4.401704E-01
6.625000E-01 9.125000E-01 3.725931E-01
7.062500E-01 9.187500E-01 4.626951E-01
7.125000E-01 9.625000E-01 4.870995E-01
6.687500E-01 9.562500E-01 3.968470E-01
5.625000E-01 7.500000E-01 1.092956E-01
6.250000E-01 7.500000E-01 2.143910E-01
6.250000E-01 8.125000E-01 2.520972E-01
5.375000E-01 7.875000E-01 7.313124E-02
5.812500E-01 7.937500E-01 1.595004E-01
5.875000E-01 8.375000E-01 1.876376E-01
5.437500E-01 8.312500E-01 9.365235E-02
6.875000E-01 7.500000E-01 3.112475E-01
7.500000E-01 7.500000E-01 3.961429E-01
7.500000E-01 8.125000E-01 4.658148E-01
6.625000E-01 7.875000E-01 3.040179E-01
7.062500E-01 7.937500E-01 3.812698E-01
7.125000E-01 8.375000E-01 4.279588E-01
6.687500E-01 8.312500E-01 3.456331E-01
8.125000E-01 8.750000E-01 6.086164E-01
8.750000E-01 8.750000E-01 6.762583E-01
8.750000E-01 9.375000E-01 7.179120E-01
8.750000E-01 1.000000E+00 7.319767E-01
8.125000E-01 1.000000E+00 6.587616E-01
7.875000E-01 9.125000E-01 5.988353E-01
8.312500E-01 9.187500E-01 6.613852E-01
8.375000E-01 9.625000E-01 6.864747E-01
7.937500E-01 9.562500E-01 6.257485E-01
9.375000E-01 8.750000E-01 7.179120E-01
1.000000E+00 8.750000E-01 7.319767E-01
1.000000E+00 9.375000E-01 7.770623E-01
1.000000E+00 1.000000E+00 7.922859E-01
9.375000E-01 1.000000E+00 7.770623E-01
9.125000E-01 9.125000E-01 7.339103E-01
9.562500E-01 9.187500E-01 7.593854E-01
9.625000E-01 9.625000E-01 7.813404E-01
9.187500E-01 9.562500E-01 7.593854E-01
8.125000E-01 7.500000E-01 4.658148E-01
8.750000E-01 7.500000E-01 5.175857E-01
8.750000E-01 8.125000E-01 6.086164E-01
7.875000E-01 7.875000E-01 4.886207E-01
8.312500E-01 7.937500E-01 5.449944E-01
8.375000E-01 8.375000E-01 6.031270E-01
7.937500E-01 8.312500E-01 5.449944E-01
9.375000E-01 7.500000E-01 5.494660E-01
1.000000E+00 7.500000E-01 5.602307E-01
1.000000E+00 8.125000E-01 6.587616E-01
9.125000E-01 7.875000E-01 5.988353E-01
9.562500E-01 7.937500E-01 6.257485E-01
9.625000E-01 8.375000E-01 6.864747E-01
9.187500E-01 8.312500E-01 6.613852E-01
5.625000E-01 6.250000E-01 5.915035E-02
6.250000E-01 6.250000E-01 1.160276E-01
6.250000E-01 6.875000E-01 1.684459E-01
5.375000E-01 6.625000E-01 4.550198E-02
5.812500E-01 6.687500E-01 1.011545E-01
5.875000E-01 7.125000E-01 1.331414E-01
5.437500E-01 7.062500E-01 6.551777E-02
6.875000E-01 6.250000E-01 1.684459E-01
7.500000E-01 6.250000E-01 2.143910E-01
7.500000E-01 6.875000E-01 3.112475E-01
6.625000E-01 6.625000E-01 1.891588E-01
7.062500E-01 6.687500E-01 2.417997E-01
7.125000E-01 7.125000E-01 3.036652E-01
6.687500E-01 7.062500E-01 2.417997E-01
5.625000E-01 5.000000E-01 -9.464518E-18
6.250000E-01 5.000000E-01 -1.856532E-17
6.250000E-01 5.625000E-01 5.915035E-02
5.375000E-01 5.375000E-01 1.094546E-02
5.812500E-01 5.437500E-01 2.740870E-02
5.875000E-01 5.875000E-01 5.837556E-02
5.437500E-01 5.812500E-01 2.740870E-02
6.875000E-01 5.000000E-01 -2.695267E-17
7.500000E-01 5.000000E-01 -3.430424E-17
7.500000E-01 5.625000E-01 1.092956E-01
6.625000E-01 5.375000E-01 4.550198E-02
7.062500E-01 5.437500E-01 6.551777E-02
7.125000E-01 5.875000E-01 1.331414E-01
6.687500E-01 5.812500E-01 1.011545E-01
8.125000E-01 6.250000E-01 2.520972E-01
8.750000E-01 6.250000E-01 2.801154E-01
8.750000E-01 6.875000E-01 4.066645E-01
7.875000E-01 6.625000E-01 3.040179E-01
8.312500E-01 6.687500E-01 3.456331E-01
8.375000E-01 7.125000E-01 4.279588E-01
7.937500E-01 7.062500E-01 3.812698E-01
9.375000E-01 6.250000E-01 2.973689E-01
1.000000E+00 6.250000E-01 3.031947E-01
1.000000E+00 6.875000E-01 4.401704E-01
9.125000E-01 6.625000E-01 3.725931E-01
9.562500E-01 6.687500E-01 3.968470E-01
9.625000E-01 7.125000E-01 4.870995E-01
9.187500E-01 7.062500E-01 4.626951E-01
8.125000E-01 5.000000E-01 -4.033752E-17
8.750000E-01 5.000000E-01 -4.482065E-17
8.750000E-01 5.625000E-01 1.428016E-01
7.875000E-01 5.375000E-01 7.313124E-02
8.312500E-01 5.437500E-01 9.365235E-02
8.375000E-01 5.875000E-01 1.876376E-01
7.937500E-01 5.812500E-01 1.595004E-01
9.375000E-01 5.000000E-01 -4.758134E-17
1.000000E+00 5.000000E-01 -4.851352E-17
1.000000E+00 5.625000E-01 1.545673E-01
9.125000E-01 5.375000E-01 8.962693E-02
9.562500E-01 5.437500E-01 1.075292E-01
9.625000E-01 5.875000E-01 2.135677E-01
9.187500E-01 5.812500E-01 1.935639E-01
0.000000E+00 3.750000E-01 3.031947E-01
6.250000E-02 3.750000E-01 2.973689E-01
[...]
CELL_DATA 896
SCALARS sol float 1
LOOKUP_TABLE default
-7.357143E-01
-7.389807E-01
-7.554310E-01
-7.089916E-01
-7.588143E-01
-7.119821E-01
-7.705764E-01
-6.892748E-01
-6.867703E-01
-7.588143E-01
-7.119821E-01
-6.864944E-01
-7.822536E-01
-6.512435E-01
-6.512123E-01
-7.705764E-01
-7.389807E-01
-6.864944E-01
-6.500625E-01
-7.822536E-01
-6.354023E-01
-6.122917E-01
-6.283891E-01
-7.554310E-01
-7.357143E-01
-6.500625E-01
-6.867703E-01
-6.248605E-01
-5.928623E-01
-5.758598E-01
-5.791467E-01
-7.089916E-01
-6.283891E-01
-6.248605E-01
-6.512123E-01
-5.803954E-01
-5.594299E-01
-5.277920E-01
-5.563550E-01
-6.892748E-01
-5.791467E-01
-5.803954E-01
-6.354023E-01
-5.454140E-01
-5.130451E-01
-4.913601E-01
-4.984096E-01
-5.087545E-01
-6.512435E-01
-5.594299E-01
-5.563550E-01
-5.454140E-01
-5.928623E-01
-5.041167E-01
-4.654446E-01
-4.327646E-01
-4.444692E-01
-4.653168E-01
-6.122917E-01
-5.130451E-01
-5.087545E-01
-5.041167E-01
-5.758598E-01
-4.552100E-01
-4.221309E-01
-4.456000E-01
-4.152560E-01
-3.759365E-01
-4.211874E-01
-4.654446E-01
-4.984096E-01
-4.653168E-01
-4.552100E-01
-5.277920E-01
-4.157184E-01
-3.581415E-01
-3.856606E-01
-3.564859E-01
-3.283360E-01
-3.723914E-01
-4.221309E-01
-4.456000E-01
-4.444692E-01
-4.211874E-01
-4.157184E-01
-4.913601E-01
-3.641960E-01
-3.217096E-01
-3.415157E-01
-3.565814E-01
-2.662408E-01
-3.386239E-01
-3.581415E-01
-3.856606E-01
-4.152560E-01
-3.723914E-01
-3.641960E-01
-4.327646E-01
-3.320014E-01
-2.614894E-01
-2.899933E-01
-3.030971E-01
-2.186403E-01
-2.341706E-01
-2.816884E-01
-3.217096E-01
-3.415157E-01
-3.565814E-01
-3.564859E-01
-3.386239E-01
-3.320014E-01
-3.759365E-01
-2.798432E-01
-2.099670E-01
-2.349329E-01
-2.619716E-01
-1.484013E-01
-1.700596E-01
-2.551023E-01
-2.614894E-01
-2.899933E-01
-3.030971E-01
-3.283360E-01
-2.816884E-01
-2.798432E-01
-2.436204E-01
-1.985010E-01
-1.516071E-01
-1.978574E-01
-2.117924E-01
-1.318908E-01
-8.234834E-02
-2.075018E-01
-2.099670E-01
-2.341706E-01
-2.349329E-01
-2.619716E-01
-2.662408E-01
-2.551023E-01
-2.436204E-01
-2.035645E-01
-1.322124E-01
-8.261243E-02
-1.426756E-01
-1.641919E-01
-6.583782E-02
-3.082591E-02
-1.678585E-01
-1.516071E-01
-1.985010E-01
-1.700596E-01
-1.978574E-01
-2.117924E-01
-2.186403E-01
-2.075018E-01
-2.035645E-01
-1.623509E-01
-1.134624E-01
-7.468373E-02
-3.501191E-02
-1.215787E-01
-1.481418E-01
3.584307E-02
-1.314222E-01
-8.261243E-02
-1.322124E-01
-1.318908E-01
-1.426756E-01
-1.641919E-01
-1.484013E-01
-1.678585E-01
-1.623509E-01
-1.298519E-01
-5.593371E-02
-2.708321E-02
2.987564E-02
-6.528236E-02
-9.589542E-02
8.736551E-02
6.571871E-02
-9.357046E-02
-3.501191E-02
-7.468373E-02
-1.134624E-01
-6.583782E-02
-1.215787E-01
-1.481418E-01
-8.234834E-02
-1.314222E-01
-1.298519E-01
-9.342001E-02
-2.885050E-02
3.121745E-02
7.747617E-02
-5.564920E-02
-7.776042E-02
1.585548E-01
1.302400E-01
-7.304102E-02
2.987564E-02
-2.708321E-02
-5.593371E-02
-3.082591E-02
-6.528236E-02
-9.589542E-02
-9.357046E-02
-9.342001E-02
-7.522924E-02
2.437708E-02
7.881797E-02
5.559453E-02
1.419974E-01
-1.921734E-02
-3.751421E-02
1.715536E-01
2.237766E-01
-3.801365E-02
7.747617E-02
6.571871E-02
3.121745E-02
-2.885050E-02
3.584307E-02
-5.564920E-02
-7.776042E-02
-7.304102E-02
-7.522924E-02
-4.497919E-02
6.080894E-02
1.413638E-01
1.087613E-01
2.054936E-01
2.183926E-02
-1.829686E-02
2.348335E-01
2.713771E-01
-2.814258E-02
1.419974E-01
7.881797E-02
1.302400E-01
5.559453E-02
2.437708E-02
8.736551E-02
-1.921734E-02
-3.751421E-02
-3.801365E-02
-4.497919E-02
-3.022010E-02
5.827112E-02
1.139757E-01
1.469301E-01
2.035182E-01
2.570160E-01
3.700658E-02
1.516733E-02
3.324702E-01
-8.425803E-03
2.054936E-01
1.413638E-01
1.715536E-01
1.087613E-01
6.080894E-02
1.585548E-01
2.183926E-02
-1.829686E-02
-2.814258E-02
-3.022010E-02
-1.338350E-02
1.026516E-01
1.610623E-01
1.997451E-01
2.399500E-01
3.166924E-01
7.072475E-02
3.488411E-02
3.800707E-01
3.556030E-01
9.136234E-03
2.570160E-01
2.035182E-01
1.469301E-01
2.348335E-01
1.139757E-01
5.827112E-02
2.237766E-01
3.700658E-02
1.516733E-02
-8.425803E-03
-1.338350E-02
-4.957698E-03
9.993788E-02
1.522760E-01
2.086629E-01
2.926152E-01
3.531243E-01
6.860227E-02
2.885302E-02
4.413723E-01
4.107117E-01
1.278472E-02
3.166924E-01
2.399500E-01
1.997451E-01
2.713771E-01
1.610623E-01
1.026516E-01
7.072475E-02
3.488411E-02
9.136234E-03
-4.957698E-03
3.648487E-03
1.342473E-01
1.719928E-01
2.568354E-01
3.441376E-01
3.005827E-01
4.139842E-01
9.211080E-02
4.831154E-02
4.488805E-01
4.958335E-01
2.192096E-02
3.531243E-01
3.556030E-01
2.926152E-01
2.086629E-01
3.324702E-01
1.522760E-01
9.993788E-02
6.860227E-02
2.885302E-02
1.278472E-02
3.648487E-03
3.648487E-03
1.285427E-01
2.082122E-01
2.765521E-01
3.934188E-01
3.436403E-01
4.623151E-01
7.785116E-02
3.773099E-02
4.997535E-01
5.322654E-01
1.278472E-02
4.139842E-01
3.441376E-01
4.107117E-01
3.005827E-01
2.568354E-01
3.800707E-01
1.719928E-01
1.342473E-01
9.211080E-02
4.831154E-02
2.192096E-02
3.648487E-03
-4.957698E-03
1.578774E-01
2.558127E-01
1.998015E-01
3.321784E-01
3.849539E-01
4.507363E-01
5.099156E-01
7.785116E-02
4.831154E-02
5.784817E-01
9.136234E-03
4.623151E-01
3.934188E-01
4.488805E-01
3.436403E-01
2.765521E-01
4.413723E-01
2.082122E-01
1.285427E-01
7.785116E-02
3.773099E-02
1.278472E-02
-4.957698E-03
-1.338350E-02
1.578774E-01
2.855708E-01
2.242527E-01
3.628868E-01
4.250145E-01
4.704531E-01
5.552957E-01
9.211080E-02
2.885302E-02
6.149136E-01
5.913499E-01
-8.425803E-03
5.099156E-01
4.507363E-01
3.849539E-01
4.997535E-01
3.321784E-01
2.558127E-01
4.958335E-01
1.998015E-01
1.578774E-01
7.785116E-02
4.831154E-02
9.136234E-03
-1.338350E-02
-3.022010E-02
1.285427E-01
1.998015E-01
2.624215E-01
3.370185E-01
4.144092E-01
5.094650E-01
5.750125E-01
6.860227E-02
3.488411E-02
6.569949E-01
6.286563E-01
-2.814258E-02
5.552957E-01
4.704531E-01
4.250145E-01
5.322654E-01
3.628868E-01
2.855708E-01
2.242527E-01
1.578774E-01
9.211080E-02
2.885302E-02
-8.425803E-03
-3.022010E-02
-4.497919E-02
1.342473E-01
2.082122E-01
2.855708E-01
3.370185E-01
4.501928E-01
5.570655E-01
4.998100E-01
6.229456E-01
7.072475E-02
1.516733E-02
6.578695E-01
6.924043E-01
-3.801365E-02
5.750125E-01
5.913499E-01
5.094650E-01
4.144092E-01
5.784817E-01
3.370185E-01
2.624215E-01
1.998015E-01
1.285427E-01
6.860227E-02
3.488411E-02
-2.814258E-02
-4.497919E-02
-7.522924E-02
9.993788E-02
1.719928E-01
2.558127E-01
3.628868E-01
4.501928E-01
5.855793E-01
5.262031E-01
6.487533E-01
3.700658E-02
-1.829686E-02
6.885906E-01
7.121211E-01
-7.304102E-02
6.229456E-01
5.570655E-01
6.286563E-01
4.998100E-01
4.501928E-01
6.149136E-01
3.370185E-01
2.855708E-01
2.082122E-01
1.342473E-01
7.072475E-02
1.516733E-02
-3.801365E-02
-7.522924E-02
-9.342001E-02
1.026516E-01
1.522760E-01
2.765521E-01
4.144092E-01
3.321784E-01
4.998100E-01
5.643719E-01
6.293339E-01
6.851851E-01
2.183926E-02
-3.751421E-02
7.364247E-01
-9.357046E-02
6.487533E-01
5.855793E-01
6.578695E-01
5.262031E-01
4.501928E-01
6.569949E-01
3.628868E-01
2.558127E-01
1.719928E-01
9.993788E-02
3.700658E-02
-1.829686E-02
-7.304102E-02
-9.342001E-02
-1.298519E-01
5.827112E-02
1.610623E-01
2.568354E-01
4.250145E-01
3.436403E-01
5.094650E-01
5.855793E-01
6.293339E-01
7.093602E-01
-1.921734E-02
-7.776042E-02
7.561415E-01
7.370692E-01
-1.314222E-01
6.851851E-01
6.293339E-01
5.643719E-01
6.885906E-01
4.998100E-01
4.144092E-01
6.924043E-01
3.321784E-01
2.765521E-01
1.522760E-01
1.026516E-01
2.183926E-02
-3.751421E-02
-9.357046E-02
-1.298519E-01
-1.623509E-01
6.080894E-02
2.086629E-01
1.139757E-01
3.005827E-01
3.849539E-01
4.704531E-01
5.570655E-01
6.487533E-01
7.093602E-01
-5.564920E-02
-9.589542E-02
7.725960E-01
7.508937E-01
-1.678585E-01
7.093602E-01
6.293339E-01
5.855793E-01
7.121211E-01
5.094650E-01
4.250145E-01
3.436403E-01
2.568354E-01
1.610623E-01
5.827112E-02
-1.921734E-02
-7.776042E-02
-1.314222E-01
-1.623509E-01
-2.035645E-01
2.437708E-02
1.997451E-01
1.087613E-01
2.926152E-01
3.934188E-01
4.507363E-01
5.750125E-01
6.851851E-01
6.229456E-01
7.370692E-01
-6.528236E-02
-1.481418E-01
7.667037E-01
7.835629E-01
-2.075018E-01
7.093602E-01
7.370692E-01
6.487533E-01
5.570655E-01
7.364247E-01
4.704531E-01
3.849539E-01
3.005827E-01
2.086629E-01
1.139757E-01
6.080894E-02
-5.564920E-02
-9.589542E-02
-1.678585E-01
-2.035645E-01
-2.436204E-01
5.559453E-02
-2.885050E-02
1.469301E-01
2.399500E-01
3.441376E-01
4.623151E-01
5.552957E-01
6.885906E-01
6.286563E-01
7.364247E-01
-1.215787E-01
-1.641919E-01
7.725960E-01
7.835629E-01
-2.551023E-01
7.370692E-01
6.851851E-01
7.508937E-01
6.229456E-01
5.750125E-01
7.561415E-01
4.507363E-01
3.934188E-01
2.926152E-01
1.997451E-01
1.087613E-01
2.437708E-02
-6.528236E-02
-1.481418E-01
-2.075018E-01
-2.436204E-01
-2.798432E-01
3.121745E-02
-5.593371E-02
1.413638E-01
2.035182E-01
3.531243E-01
5.099156E-01
4.139842E-01
5.913499E-01
6.578695E-01
7.121211E-01
7.561415E-01
-1.426756E-01
-2.117924E-01
-2.816884E-01
7.364247E-01
6.885906E-01
7.667037E-01
6.286563E-01
5.552957E-01
7.725960E-01
4.623151E-01
3.441376E-01
2.399500E-01
1.469301E-01
5.559453E-02
-2.885050E-02
-1.215787E-01
-1.641919E-01
-2.551023E-01
-2.798432E-01
-3.320014E-01
7.881797E-02
-2.708321E-02
-1.134624E-01
2.054936E-01
3.166924E-01
4.997535E-01
4.107117E-01
5.784817E-01
6.569949E-01
6.924043E-01
-1.978574E-01
-2.619716E-01
-3.386239E-01
7.561415E-01
7.121211E-01
6.578695E-01
7.725960E-01
5.913499E-01
5.099156E-01
7.835629E-01
4.139842E-01
3.531243E-01
2.035182E-01
1.413638E-01
3.121745E-02
-5.593371E-02
-1.426756E-01
-2.117924E-01
-2.816884E-01
-3.320014E-01
-3.641960E-01
7.747617E-02
-7.468373E-02
-1.322124E-01
2.570160E-01
1.419974E-01
3.556030E-01
4.488805E-01
5.322654E-01
6.149136E-01
-2.349329E-01
-3.030971E-01
-3.723914E-01
6.924043E-01
6.569949E-01
7.835629E-01
5.784817E-01
4.997535E-01
4.107117E-01
3.166924E-01
2.054936E-01
7.881797E-02
-2.708321E-02
-1.134624E-01
-1.978574E-01
-2.619716E-01
-3.386239E-01
-3.641960E-01
-4.157184E-01
2.987564E-02
-8.261243E-02
-1.985010E-01
2.348335E-01
1.302400E-01
3.324702E-01
4.413723E-01
4.958335E-01
-2.899933E-01
-3.565814E-01
-4.211874E-01
6.149136E-01
5.322654E-01
4.488805E-01
3.556030E-01
2.570160E-01
1.419974E-01
7.747617E-02
-7.468373E-02
-1.322124E-01
-2.349329E-01
-3.030971E-01
-3.723914E-01
-4.157184E-01
-4.552100E-01
6.571871E-02
-3.501191E-02
-1.516071E-01
-2.099670E-01
1.715536E-01
2.713771E-01
3.800707E-01
-3.415157E-01
-3.856606E-01
-4.653168E-01
4.958335E-01
4.413723E-01
3.324702E-01
2.348335E-01
1.302400E-01
2.987564E-02
-8.261243E-02
-1.985010E-01
-2.899933E-01
-3.565814E-01
-4.211874E-01
-4.552100E-01
-5.041167E-01
3.584307E-02
-6.583782E-02
-1.700596E-01
-2.614894E-01
1.585548E-01
2.237766E-01
-3.581415E-01
-4.456000E-01
-5.087545E-01
3.800707E-01
2.713771E-01
1.715536E-01
6.571871E-02
-3.501191E-02
-1.516071E-01
-2.099670E-01
-3.415157E-01
-3.856606E-01
-4.653168E-01
-5.041167E-01
-5.454140E-01
8.736551E-02
-3.082591E-02
-1.318908E-01
-2.341706E-01
-3.217096E-01
-4.221309E-01
-4.654446E-01
-5.563550E-01
2.237766E-01
1.585548E-01
3.584307E-02
-6.583782E-02
-1.700596E-01
-2.614894E-01
-3.581415E-01
-4.456000E-01
-5.087545E-01
-5.454140E-01
-5.803954E-01
-8.234834E-02
-1.484013E-01
-2.662408E-01
-3.564859E-01
-4.444692E-01
-5.130451E-01
-5.791467E-01
8.736551E-02
-3.082591E-02
-1.318908E-01
-2.341706E-01
-3.217096E-01
-4.221309E-01
-4.654446E-01
-5.563550E-01
-5.803954E-01
-6.248605E-01
-2.186403E-01
-3.283360E-01
-4.152560E-01
-4.984096E-01
-5.594299E-01
-6.283891E-01
-8.234834E-02
-1.484013E-01
-2.662408E-01
-3.564859E-01
-4.444692E-01
-5.130451E-01
-5.791467E-01
-6.248605E-01
-6.500625E-01
-3.759365E-01
-4.327646E-01
-5.277920E-01
-5.928623E-01
-6.512123E-01
-2.186403E-01
-3.283360E-01
-4.152560E-01
-4.984096E-01
-5.594299E-01
-6.283891E-01
-6.500625E-01
-6.864944E-01
-4.913601E-01
-5.758598E-01
-6.354023E-01
-6.867703E-01
-3.759365E-01
-4.327646E-01
-5.277920E-01
-5.928623E-01
-6.512123E-01
-6.864944E-01
-7.119821E-01
-6.122917E-01
-6.512435E-01
-7.089916E-01
-4.913601E-01
-5.758598E-01
-6.354023E-01
-6.867703E-01
-7.119821E-01
-7.389807E-01
-6.892748E-01
-7.357143E-01
-6.122917E-01
-6.512435E-01
-7.089916E-01
-7.389807E-01
-7.588143E-01
-7.554310E-01
-6.892748E-01
-7.357143E-01
-7.588143E-01
-7.705764E-01
-7.554310E-01
-7.705764E-01
-7.822536E-01
-7.822536E-01
