# vtk DataFile Version 2.0
Grille
ASCII
DATASET POLYDATA
POINTS 481 float
0.000000E+00 8.750000E-01 -8.994516E-01
6.250000E-02 8.750000E-01 -8.821689E-01
1.250000E-01 8.750000E-01 -8.309849E-01
1.250000E-01 9.375000E-01 -8.821689E-01
1.250000E-01 1.000000E+00 -8.994516E-01
6.250000E-02 1.000000E+00 -9.548528E-01
0.000000E+00 1.000000E+00 -9.735594E-01
0.000000E+00 9.375000E-01 -9.548528E-01
3.750000E-02 9.125000E-01 -9.305125E-01
8.125000E-02 9.187500E-01 -9.114931E-01
8.750000E-02 9.625000E-01 -9.305125E-01
4.375000E-02 9.562500E-01 -9.552834E-01
1.875000E-01 8.750000E-01 -7.478667E-01
2.500000E-01 8.750000E-01 -6.360083E-01
2.500000E-01 9.375000E-01 -6.751829E-01
2.500000E-01 1.000000E+00 -6.884105E-01
1.875000E-01 1.000000E+00 -8.094851E-01
1.625000E-01 9.125000E-01 -8.175352E-01
2.062500E-01 9.187500E-01 -7.510882E-01
2.125000E-01 9.625000E-01 -7.592532E-01
1.687500E-01 9.562500E-01 -8.320022E-01
0.000000E+00 7.500000E-01 -6.884105E-01
6.250000E-02 7.500000E-01 -6.751829E-01
1.250000E-01 7.500000E-01 -6.360083E-01
1.250000E-01 8.125000E-01 -7.478667E-01
0.000000E+00 8.125000E-01 -8.094851E-01
3.750000E-02 7.875000E-01 -7.592532E-01
8.125000E-02 7.937500E-01 -7.510882E-01
8.750000E-02 8.375000E-01 -8.175352E-01
4.375000E-02 8.312500E-01 -8.320022E-01
1.875000E-01 7.500000E-01 -5.723924E-01
2.500000E-01 7.500000E-01 -4.867797E-01
2.500000E-01 8.125000E-01 -5.723924E-01
1.625000E-01 7.875000E-01 -6.670692E-01
2.062500E-01 7.937500E-01 -6.189114E-01
2.125000E-01 8.375000E-01 -6.670692E-01
1.687500E-01 8.312500E-01 -7.246306E-01
3.125000E-01 8.750000E-01 -4.997085E-01
3.750000E-01 8.750000E-01 -3.442052E-01
3.750000E-01 9.375000E-01 -3.654063E-01
3.750000E-01 1.000000E+00 -3.725651E-01
3.125000E-01 1.000000E+00 -5.408806E-01
2.875000E-01 9.125000E-01 -5.800956E-01
3.312500E-01 9.187500E-01 -4.763369E-01
3.375000E-01 9.625000E-01 -4.724045E-01
2.937500E-01 9.562500E-01 -5.820561E-01
4.375000E-01 8.750000E-01 -1.754743E-01
5.000000E-01 8.750000E-01 -5.507553E-17
5.000000E-01 9.375000E-01 -5.846787E-17
5.000000E-01 1.000000E+00 -5.961332E-17
4.375000E-01 1.000000E+00 -1.899320E-01
4.125000E-01 9.125000E-01 -2.543417E-01
4.562500E-01 9.187500E-01 -1.290677E-01
4.625000E-01 9.625000E-01 -1.136365E-01
4.187500E-01 9.562500E-01 -2.434974E-01
3.125000E-01 7.500000E-01 -3.824604E-01
3.750000E-01 7.500000E-01 -2.634433E-01
3.750000E-01 8.125000E-01 -3.097765E-01
2.875000E-01 7.875000E-01 -4.733299E-01
3.312500E-01 7.937500E-01 -3.925110E-01
3.375000E-01 8.375000E-01 -4.150479E-01
2.937500E-01 8.312500E-01 -5.069406E-01
4.375000E-01 7.500000E-01 -1.343022E-01
5.000000E-01 7.500000E-01 -4.215298E-17
5.000000E-01 8.125000E-01 -4.956667E-17
4.125000E-01 7.875000E-01 -2.075305E-01
4.562500E-01 7.937500E-01 -1.063543E-01
4.625000E-01 8.375000E-01 -9.983940E-02
4.187500E-01 8.312500E-01 -2.120735E-01
0.000000E+00 6.250000E-01 -3.725651E-01
6.250000E-02 6.250000E-01 -3.654063E-01
1.250000E-01 6.250000E-01 -3.442052E-01
1.250000E-01 6.875000E-01 -4.997085E-01
0.000000E+00 6.875000E-01 -5.408806E-01
3.750000E-02 6.625000E-01 -4.724045E-01
8.125000E-02 6.687500E-01 -4.763369E-01
8.750000E-02 7.125000E-01 -5.800956E-01
4.375000E-02 7.062500E-01 -5.820561E-01
1.875000E-01 6.250000E-01 -3.097765E-01
2.500000E-01 6.250000E-01 -2.634433E-01
2.500000E-01 6.875000E-01 -3.824604E-01
1.625000E-01 6.625000E-01 -4.150479E-01
2.062500E-01 6.687500E-01 -3.925110E-01
2.125000E-01 7.125000E-01 -4.733299E-01
1.687500E-01 7.062500E-01 -5.069406E-01
0.000000E+00 5.000000E-01 5.961332E-17
6.250000E-02 5.000000E-01 5.846787E-17
1.250000E-01 5.000000E-01 5.507553E-17
1.250000E-01 5.625000E-01 -1.754743E-01
0.000000E+00 5.625000E-01 -1.899320E-01
3.750000E-02 5.375000E-01 -1.136365E-01
8.125000E-02 5.437500E-01 -1.290677E-01
8.750000E-02 5.875000E-01 -2.543417E-01
4.375000E-02 5.812500E-01 -2.434974E-01
1.875000E-01 5.000000E-01 4.956667E-17
2.500000E-01 5.000000E-01 4.215298E-17
2.500000E-01 5.625000E-01 -1.343022E-01
1.625000E-01 5.375000E-01 -9.983940E-02
2.062500E-01 5.437500E-01 -1.063543E-01
2.125000E-01 5.875000E-01 -2.075305E-01
1.687500E-01 5.812500E-01 -2.120735E-01
3.125000E-01 6.250000E-01 -2.069861E-01
3.750000E-01 6.250000E-01 -1.425745E-01
3.750000E-01 6.875000E-01 -2.069861E-01
2.875000E-01 6.625000E-01 -2.945041E-01
3.312500E-01 6.687500E-01 -2.489288E-01
3.375000E-01 7.125000E-01 -2.945041E-01
2.937500E-01 7.062500E-01 -3.546480E-01
4.375000E-01 6.250000E-01 -7.268384E-02
5.000000E-01 6.250000E-01 -2.281303E-17
5.000000E-01 6.875000E-01 -3.311939E-17
4.125000E-01 6.625000E-01 -1.291247E-01
4.562500E-01 6.687500E-01 -6.744946E-02
4.625000E-01 7.125000E-01 -7.084270E-02
4.187500E-01 7.062500E-01 -1.483634E-01
3.125000E-01 5.000000E-01 3.311939E-17
3.750000E-01 5.000000E-01 2.281303E-17
3.750000E-01 5.625000E-01 -7.268384E-02
2.875000E-01 5.375000E-01 -7.084270E-02
3.312500E-01 5.437500E-01 -6.744946E-02
3.375000E-01 5.875000E-01 -1.291247E-01
2.937500E-01 5.812500E-01 -1.483634E-01
4.375000E-01 5.000000E-01 1.162998E-17
5.000000E-01 5.000000E-01 3.650263E-33
5.000000E-01 5.625000E-01 -1.162998E-17
4.125000E-01 5.375000E-01 -3.106083E-02
4.562500E-01 5.437500E-01 -1.827603E-02
4.625000E-01 5.875000E-01 -3.106083E-02
4.187500E-01 5.812500E-01 -6.206636E-02
5.625000E-01 8.750000E-01 1.754743E-01
6.250000E-01 8.750000E-01 3.442052E-01
6.250000E-01 9.375000E-01 3.654063E-01
6.250000E-01 1.000000E+00 3.725651E-01
5.625000E-01 1.000000E+00 1.899320E-01
5.375000E-01 9.125000E-01 1.101334E-01
5.812500E-01 9.187500E-01 2.378509E-01
5.875000E-01 9.625000E-01 2.624317E-01
5.437500E-01 9.562500E-01 1.321317E-01
6.875000E-01 8.750000E-01 4.997085E-01
7.500000E-01 8.750000E-01 6.360083E-01
7.500000E-01 9.375000E-01 6.751829E-01
7.500000E-01 1.000000E+00 6.884105E-01
6.875000E-01 1.000000E+00 5.408806E-01
6.625000E-01 9.125000E-01 4.578417E-01
7.062500E-01 9.187500E-01 5.685589E-01
7.125000E-01 9.625000E-01 5.985469E-01
6.687500E-01 9.562500E-01 4.876449E-01
5.625000E-01 7.500000E-01 1.343022E-01
6.250000E-01 7.500000E-01 2.634433E-01
6.250000E-01 8.125000E-01 3.097765E-01
5.375000E-01 7.875000E-01 8.986353E-02
5.812500E-01 7.937500E-01 1.959938E-01
5.875000E-01 8.375000E-01 2.305688E-01
5.437500E-01 8.312500E-01 1.150798E-01
6.875000E-01 7.500000E-01 3.824604E-01
7.500000E-01 7.500000E-01 4.867797E-01
7.500000E-01 8.125000E-01 5.723924E-01
6.625000E-01 7.875000E-01 3.735767E-01
7.062500E-01 7.937500E-01 4.685037E-01
7.125000E-01 8.375000E-01 5.258749E-01
6.687500E-01 8.312500E-01 4.247134E-01
8.125000E-01 8.750000E-01 7.478667E-01
8.750000E-01 8.750000E-01 8.309849E-01
8.750000E-01 9.375000E-01 8.821689E-01
8.750000E-01 1.000000E+00 8.994516E-01
8.125000E-01 1.000000E+00 8.094851E-01
7.875000E-01 9.125000E-01 7.358477E-01
8.312500E-01 9.187500E-01 8.127089E-01
8.375000E-01 9.625000E-01 8.435389E-01
7.937500E-01 9.562500E-01 7.689186E-01
9.375000E-01 8.750000E-01 8.821689E-01
1.000000E+00 8.750000E-01 8.994516E-01
1.000000E+00 9.375000E-01 9.548528E-01
1.000000E+00 1.000000E+00 9.735594E-01
9.375000E-01 1.000000E+00 9.548528E-01
9.125000E-01 9.125000E-01 9.018276E-01
9.562500E-01 9.187500E-01 9.331314E-01
9.625000E-01 9.625000E-01 9.601097E-01
9.187500E-01 9.562500E-01 9.331314E-01
8.125000E-01 7.500000E-01 5.723924E-01
8.750000E-01 7.500000E-01 6.360083E-01
8.750000E-01 8.125000E-01 7.478667E-01
7.875000E-01 7.875000E-01 6.004162E-01
8.312500E-01 7.937500E-01 6.696881E-01
8.375000E-01 8.375000E-01 7.411214E-01
7.937500E-01 8.312500E-01 6.696881E-01
9.375000E-01 7.500000E-01 6.751829E-01
1.000000E+00 7.500000E-01 6.884105E-01
1.000000E+00 8.125000E-01 8.094851E-01
9.125000E-01 7.875000E-01 7.358477E-01
9.562500E-01 7.937500E-01 7.689186E-01
9.625000E-01 8.375000E-01 8.435389E-01
9.187500E-01 8.312500E-01 8.127089E-01
5.625000E-01 6.250000E-01 7.268384E-02
6.250000E-01 6.250000E-01 1.425745E-01
6.250000E-01 6.875000E-01 2.069861E-01
5.375000E-01 6.625000E-01 5.591275E-02
5.812500E-01 6.687500E-01 1.242984E-01
5.875000E-01 7.125000E-01 1.636039E-01
5.437500E-01 7.062500E-01 8.050812E-02
6.875000E-01 6.250000E-01 2.069861E-01
7.500000E-01 6.250000E-01 2.634433E-01
7.500000E-01 6.875000E-01 3.824604E-01
6.625000E-01 6.625000E-01 2.324380E-01
7.062500E-01 6.687500E-01 2.971230E-01
7.125000E-01 7.125000E-01 3.731432E-01
6.687500E-01 7.062500E-01 2.971230E-01
5.625000E-01 5.000000E-01 -1.162998E-17
6.250000E-01 5.000000E-01 -2.281303E-17
6.250000E-01 5.625000E-01 7.268384E-02
5.375000E-01 5.375000E-01 1.344976E-02
5.812500E-01 5.437500E-01 3.367976E-02
5.875000E-01 5.875000E-01 7.173178E-02
5.437500E-01 5.812500E-01 3.367976E-02
6.875000E-01 5.000000E-01 -3.311939E-17
7.500000E-01 5.000000E-01 -4.215298E-17
7.500000E-01 5.625000E-01 1.343022E-01
6.625000E-01 5.375000E-01 5.591275E-02
7.062500E-01 5.437500E-01 8.050812E-02
7.125000E-01 5.875000E-01 1.636039E-01
6.687500E-01 5.812500E-01 1.242984E-01
8.125000E-01 6.250000E-01 3.097765E-01
8.750000E-01 6.250000E-01 3.442052E-01
8.750000E-01 6.875000E-01 4.997085E-01
7.875000E-01 6.625000E-01 3.735767E-01
8.312500E-01 6.687500E-01 4.247134E-01
8.375000E-01 7.125000E-01 5.258749E-01
7.937500E-01 7.062500E-01 4.685037E-01
9.375000E-01 6.250000E-01 3.654063E-01
1.000000E+00 6.250000E-01 3.725651E-01
1.000000E+00 6.875000E-01 5.408806E-01
9.125000E-01 6.625000E-01 4.578417E-01
9.562500E-01 6.687500E-01 4.876449E-01
9.625000E-01 7.125000E-01 5.985469E-01
9.187500E-01 7.062500E-01 5.685589E-01
8.125000E-01 5.000000E-01 -4.956667E-17
8.750000E-01 5.000000E-01 -5.507553E-17
8.750000E-01 5.625000E-01 1.754743E-01
7.875000E-01 5.375000E-01 8.986353E-02
8.312500E-01 5.437500E-01 1.150798E-01
8.375000E-01 5.875000E-01 2.305688E-01
7.937500E-01 5.812500E-01 1.959938E-01
9.375000E-01 5.000000E-01 -5.846787E-17
1.000000E+00 5.000000E-01 -5.961332E-17
1.000000E+00 5.625000E-01 1.899320E-01
9.125000E-01 5.375000E-01 1.101334E-01
9.562500E-01 5.437500E-01 1.321317E-01
9.625000E-01 5.875000E-01 2.624317E-01
9.187500E-01 5.812500E-01 2.378509E-01
0.000000E+00 3.750000E-01 3.725651E-01
6.250000E-02 3.750000E-01 3.654063E-01
[...]
CELL_DATA 896
SCALARS sol float 1
LOOKUP_TABLE default
-9.040443E-01
-9.080581E-01
-9.282723E-01
-8.712076E-01
-9.324296E-01
-8.748823E-01
-9.468829E-01
-8.469796E-01
-8.439021E-01
-9.324296E-01
-8.748823E-01
-8.435630E-01
-9.612319E-01
-8.002468E-01
-8.002085E-01
-9.468829E-01
-9.080581E-01
-8.435630E-01
-7.987956E-01
-9.612319E-01
-7.807812E-01
-7.523829E-01
-7.721634E-01
-9.282723E-01
-9.040443E-01
-7.987956E-01
-8.439021E-01
-7.678274E-01
-7.285081E-01
-7.076155E-01
-7.116544E-01
-8.712076E-01
-7.721634E-01
-7.678274E-01
-8.002085E-01
-7.131888E-01
-6.874265E-01
-6.485498E-01
-6.836481E-01
-8.469796E-01
-7.116544E-01
-7.131888E-01
-7.807812E-01
-6.702037E-01
-6.304289E-01
-6.037824E-01
-6.124449E-01
-6.251566E-01
-8.002468E-01
-6.874265E-01
-6.836481E-01
-6.702037E-01
-7.285081E-01
-6.194577E-01
-5.719375E-01
-5.317804E-01
-5.461629E-01
-5.717805E-01
-7.523829E-01
-6.304289E-01
-6.251566E-01
-6.194577E-01
-7.076155E-01
-5.593612E-01
-5.187137E-01
-5.475525E-01
-5.102658E-01
-4.619501E-01
-5.175543E-01
-5.719375E-01
-6.124449E-01
-5.717805E-01
-5.593612E-01
-6.485498E-01
-5.108340E-01
-4.400836E-01
-4.738990E-01
-4.380492E-01
-4.034586E-01
-4.575939E-01
-5.187137E-01
-5.475525E-01
-5.461629E-01
-5.175543E-01
-5.108340E-01
-6.037824E-01
-4.475233E-01
-3.953162E-01
-4.196539E-01
-4.381665E-01
-3.271562E-01
-4.161004E-01
-4.400836E-01
-4.738990E-01
-5.102658E-01
-4.575939E-01
-4.475233E-01
-5.317804E-01
-4.079627E-01
-3.213178E-01
-3.563432E-01
-3.724452E-01
-2.686648E-01
-2.877485E-01
-3.461382E-01
-3.953162E-01
-4.196539E-01
-4.381665E-01
-4.380492E-01
-4.161004E-01
-4.079627E-01
-4.619501E-01
-3.438708E-01
-2.580071E-01
-2.886851E-01
-3.219103E-01
-1.823553E-01
-2.089689E-01
-3.134693E-01
-3.213178E-01
-3.563432E-01
-3.724452E-01
-4.034586E-01
-3.461382E-01
-3.438708E-01
-2.993603E-01
-2.439177E-01
-1.862946E-01
-2.431269E-01
-2.602501E-01
-1.620672E-01
-1.011895E-01
-2.549778E-01
-2.580071E-01
-2.877485E-01
-2.886851E-01
-3.219103E-01
-3.271562E-01
-3.134693E-01
-2.993603E-01
-2.501397E-01
-1.624624E-01
-1.015140E-01
-1.753195E-01
-2.017587E-01
-8.090139E-02
-3.787882E-02
-2.062643E-01
-1.862946E-01
-2.439177E-01
-2.089689E-01
-2.431269E-01
-2.602501E-01
-2.686648E-01
-2.549778E-01
-2.501397E-01
-1.994964E-01
-1.394224E-01
-9.177124E-02
-4.302257E-02
-1.493957E-01
-1.820363E-01
4.404390E-02
-1.614914E-01
-1.015140E-01
-1.624624E-01
-1.620672E-01
-1.753195E-01
-2.017587E-01
-1.823553E-01
-2.062643E-01
-1.994964E-01
-1.595617E-01
-6.873124E-02
-3.327980E-02
3.671114E-02
-8.021885E-02
-1.178361E-01
1.073546E-01
8.075504E-02
-1.149792E-01
-4.302257E-02
-9.177124E-02
-1.394224E-01
-8.090139E-02
-1.493957E-01
-1.820363E-01
-1.011895E-01
-1.614914E-01
-1.595617E-01
-1.147943E-01
-3.545144E-02
3.835995E-02
9.520257E-02
-6.838164E-02
-9.555187E-02
1.948318E-01
1.600387E-01
-8.975267E-02
3.671114E-02
-3.327980E-02
-6.873124E-02
-3.787882E-02
-8.021885E-02
-1.178361E-01
-1.149792E-01
-1.147943E-01
-9.244156E-02
2.995451E-02
9.685138E-02
6.831446E-02
1.744862E-01
-2.361423E-02
-4.609739E-02
2.108048E-01
2.749762E-01
-4.671110E-02
9.520257E-02
8.075504E-02
3.835995E-02
-3.545144E-02
4.404390E-02
-6.838164E-02
-9.555187E-02
-8.975267E-02
-9.244156E-02
-5.527034E-02
7.472192E-02
1.737076E-01
1.336457E-01
2.525101E-01
2.683604E-02
-2.248315E-02
2.885630E-01
3.334677E-01
-3.458156E-02
1.744862E-01
9.685138E-02
1.600387E-01
6.831446E-02
2.995451E-02
1.073546E-01
-2.361423E-02
-4.609739E-02
-4.671110E-02
-5.527034E-02
-3.713441E-02
7.160345E-02
1.400532E-01
1.805475E-01
2.500828E-01
3.158208E-01
4.547362E-02
1.863758E-02
4.085388E-01
-1.035361E-02
2.525101E-01
1.737076E-01
2.108048E-01
1.336457E-01
7.472192E-02
1.948318E-01
2.683604E-02
-2.248315E-02
-3.458156E-02
-3.713441E-02
-1.644562E-02
1.261381E-01
1.979131E-01
2.454464E-01
2.948502E-01
3.891511E-01
8.690644E-02
4.286553E-02
4.670302E-01
4.369643E-01
1.122659E-02
3.158208E-01
2.500828E-01
1.805475E-01
2.885630E-01
1.400532E-01
7.160345E-02
2.749762E-01
4.547362E-02
1.863758E-02
-1.035361E-02
-1.644562E-02
-6.092010E-03
1.228035E-01
1.871165E-01
2.564045E-01
3.595650E-01
4.339185E-01
8.429835E-02
3.545453E-02
5.423575E-01
5.046818E-01
1.570984E-02
3.891511E-01
2.948502E-01
2.454464E-01
3.334677E-01
1.979131E-01
1.261381E-01
8.690644E-02
4.286553E-02
1.122659E-02
-6.092010E-03
4.483254E-03
1.649628E-01
2.113444E-01
3.155988E-01
4.228757E-01
3.693555E-01
5.087030E-01
1.131856E-01
5.936513E-02
5.515836E-01
6.092793E-01
2.693643E-02
4.339185E-01
4.369643E-01
3.595650E-01
2.564045E-01
4.085388E-01
1.871165E-01
1.228035E-01
8.429835E-02
3.545453E-02
1.570984E-02
4.483254E-03
4.483254E-03
1.579530E-01
2.558508E-01
3.398268E-01
4.834323E-01
4.222646E-01
5.680919E-01
9.566336E-02
4.636377E-02
6.140962E-01
6.540468E-01
1.570984E-02
5.087030E-01
4.228757E-01
5.046818E-01
3.693555E-01
3.155988E-01
4.670302E-01
2.113444E-01
1.649628E-01
1.131856E-01
5.936513E-02
2.693643E-02
4.483254E-03
-6.092010E-03
1.939995E-01
3.143422E-01
2.455157E-01
4.081802E-01
4.730307E-01
5.538639E-01
6.265834E-01
9.566336E-02
5.936513E-02
7.108373E-01
1.122659E-02
5.680919E-01
4.834323E-01
5.515836E-01
4.222646E-01
3.398268E-01
5.423575E-01
2.558508E-01
1.579530E-01
9.566336E-02
4.636377E-02
1.570984E-02
-6.092010E-03
-1.644562E-02
1.939995E-01
3.509089E-01
2.755614E-01
4.459146E-01
5.222570E-01
5.780919E-01
6.823463E-01
1.131856E-01
3.545453E-02
7.556047E-01
7.266497E-01
-1.035361E-02
6.265834E-01
5.538639E-01
4.730307E-01
6.140962E-01
4.081802E-01
3.143422E-01
6.092793E-01
2.455157E-01
1.939995E-01
9.566336E-02
5.936513E-02
1.122659E-02
-1.644562E-02
-3.713441E-02
1.579530E-01
2.455157E-01
3.224631E-01
4.141278E-01
5.092253E-01
6.260296E-01
7.065743E-01
8.429835E-02
4.286553E-02
8.073142E-01
7.724918E-01
-3.458156E-02
6.823463E-01
5.780919E-01
5.222570E-01
6.540468E-01
4.459146E-01
3.509089E-01
2.755614E-01
1.939995E-01
1.131856E-01
3.545453E-02
-1.035361E-02
-3.713441E-02
-5.527034E-02
1.649628E-01
2.558508E-01
3.509089E-01
4.141278E-01
5.531961E-01
6.845210E-01
6.141656E-01
7.654745E-01
8.690644E-02
1.863758E-02
8.083888E-01
8.508252E-01
-4.671110E-02
7.065743E-01
7.266497E-01
6.260296E-01
5.092253E-01
7.108373E-01
4.141278E-01
3.224631E-01
2.455157E-01
1.579530E-01
8.429835E-02
4.286553E-02
-3.458156E-02
-5.527034E-02
-9.244156E-02
1.228035E-01
2.113444E-01
3.143422E-01
4.459146E-01
5.531961E-01
7.195587E-01
6.465975E-01
7.971869E-01
4.547362E-02
-2.248315E-02
8.461389E-01
8.750531E-01
-8.975267E-02
7.654745E-01
6.845210E-01
7.724918E-01
6.141656E-01
5.531961E-01
7.556047E-01
4.141278E-01
3.509089E-01
2.558508E-01
1.649628E-01
8.690644E-02
1.863758E-02
-4.671110E-02
-9.244156E-02
-1.147943E-01
1.261381E-01
1.871165E-01
3.398268E-01
5.092253E-01
4.081802E-01
6.141656E-01
6.934992E-01
7.733244E-01
8.419543E-01
2.683604E-02
-4.609739E-02
9.049173E-01
-1.149792E-01
7.971869E-01
7.195587E-01
8.083888E-01
6.465975E-01
5.531961E-01
8.073142E-01
4.459146E-01
3.143422E-01
2.113444E-01
1.228035E-01
4.547362E-02
-2.248315E-02
-8.975267E-02
-1.147943E-01
-1.595617E-01
7.160345E-02
1.979131E-01
3.155988E-01
5.222570E-01
4.222646E-01
6.260296E-01
7.195587E-01
7.733244E-01
8.716605E-01
-2.361423E-02
-9.555187E-02
9.291453E-01
9.057093E-01
-1.614914E-01
8.419543E-01
7.733244E-01
6.934992E-01
8.461389E-01
6.141656E-01
5.092253E-01
8.508252E-01
4.081802E-01
3.398268E-01
1.871165E-01
1.261381E-01
2.683604E-02
-4.609739E-02
-1.149792E-01
-1.595617E-01
-1.994964E-01
7.472192E-02
2.564045E-01
1.400532E-01
3.693555E-01
4.730307E-01
5.780919E-01
6.845210E-01
7.971869E-01
8.716605E-01
-6.838164E-02
-1.178361E-01
9.493646E-01
9.226968E-01
-2.062643E-01
8.716605E-01
7.733244E-01
7.195587E-01
8.750531E-01
6.260296E-01
5.222570E-01
4.222646E-01
3.155988E-01
1.979131E-01
7.160345E-02
-2.361423E-02
-9.555187E-02
-1.614914E-01
-1.994964E-01
-2.501397E-01
2.995451E-02
2.454464E-01
1.336457E-01
3.595650E-01
4.834323E-01
5.538639E-01
7.065743E-01
8.419543E-01
7.654745E-01
9.057093E-01
-8.021885E-02
-1.820363E-01
9.421241E-01
9.628406E-01
-2.549778E-01
8.716605E-01
9.057093E-01
7.971869E-01
6.845210E-01
9.049173E-01
5.780919E-01
4.730307E-01
3.693555E-01
2.564045E-01
1.400532E-01
7.472192E-02
-6.838164E-02
-1.178361E-01
-2.062643E-01
-2.501397E-01
-2.993603E-01
6.831446E-02
-3.545144E-02
1.805475E-01
2.948502E-01
4.228757E-01
5.680919E-01
6.823463E-01
8.461389E-01
7.724918E-01
9.049173E-01
-1.493957E-01
-2.017587E-01
9.493646E-01
9.628406E-01
-3.134693E-01
9.057093E-01
8.419543E-01
9.226968E-01
7.654745E-01
7.065743E-01
9.291453E-01
5.538639E-01
4.834323E-01
3.595650E-01
2.454464E-01
1.336457E-01
2.995451E-02
-8.021885E-02
-1.820363E-01
-2.549778E-01
-2.993603E-01
-3.438708E-01
3.835995E-02
-6.873124E-02
1.737076E-01
2.500828E-01
4.339185E-01
6.265834E-01
5.087030E-01
7.266497E-01
8.083888E-01
8.750531E-01
9.291453E-01
-1.753195E-01
-2.602501E-01
-3.461382E-01
9.049173E-01
8.461389E-01
9.421241E-01
7.724918E-01
6.823463E-01
9.493646E-01
5.680919E-01
4.228757E-01
2.948502E-01
1.805475E-01
6.831446E-02
-3.545144E-02
-1.493957E-01
-2.017587E-01
-3.134693E-01
-3.438708E-01
-4.079627E-01
9.685138E-02
-3.327980E-02
-1.394224E-01
2.525101E-01
3.891511E-01
6.140962E-01
5.046818E-01
7.108373E-01
8.073142E-01
8.508252E-01
-2.431269E-01
-3.219103E-01
-4.161004E-01
9.291453E-01
8.750531E-01
8.083888E-01
9.493646E-01
7.266497E-01
6.265834E-01
9.628406E-01
5.087030E-01
4.339185E-01
2.500828E-01
1.737076E-01
3.835995E-02
-6.873124E-02
-1.753195E-01
-2.602501E-01
-3.461382E-01
-4.079627E-01
-4.475233E-01
9.520257E-02
-9.177124E-02
-1.624624E-01
3.158208E-01
1.744862E-01
4.369643E-01
5.515836E-01
6.540468E-01
7.556047E-01
-2.886851E-01
-3.724452E-01
-4.575939E-01
8.508252E-01
8.073142E-01
9.628406E-01
7.108373E-01
6.140962E-01
5.046818E-01
3.891511E-01
2.525101E-01
9.685138E-02
-3.327980E-02
-1.394224E-01
-2.431269E-01
-3.219103E-01
-4.161004E-01
-4.475233E-01
-5.108340E-01
3.671114E-02
-1.015140E-01
-2.439177E-01
2.885630E-01
1.600387E-01
4.085388E-01
5.423575E-01
6.092793E-01
-3.563432E-01
-4.381665E-01
-5.175543E-01
7.556047E-01
6.540468E-01
5.515836E-01
4.369643E-01
3.158208E-01
1.744862E-01
9.520257E-02
-9.177124E-02
-1.624624E-01
-2.886851E-01
-3.724452E-01
-4.575939E-01
-5.108340E-01
-5.593612E-01
8.075504E-02
-4.302257E-02
-1.862946E-01
-2.580071E-01
2.108048E-01
3.334677E-01
4.670302E-01
-4.196539E-01
-4.738990E-01
-5.717805E-01
6.092793E-01
5.423575E-01
4.085388E-01
2.885630E-01
1.600387E-01
3.671114E-02
-1.015140E-01
-2.439177E-01
-3.563432E-01
-4.381665E-01
-5.175543E-01
-5.593612E-01
-6.194577E-01
4.404390E-02
-8.090139E-02
-2.089689E-01
-3.213178E-01
1.948318E-01
2.749762E-01
-4.400836E-01
-5.475525E-01
-6.251566E-01
4.670302E-01
3.334677E-01
2.108048E-01
8.075504E-02
-4.302257E-02
-1.862946E-01
-2.580071E-01
-4.196539E-01
-4.738990E-01
-5.717805E-01
-6.194577E-01
-6.702037E-01
1.073546E-01
-3.787882E-02
-1.620672E-01
-2.877485E-01
-3.953162E-01
-5.187137E-01
-5.719375E-01
-6.836481E-01
2.749762E-01
1.948318E-01
4.404390E-02
-8.090139E-02
-2.089689E-01
-3.213178E-01
-4.400836E-01
-5.475525E-01
-6.251566E-01
-6.702037E-01
-7.131888E-01
-1.011895E-01
-1.823553E-01
-3.271562E-01
-4.380492E-01
-5.461629E-01
-6.304289E-01
-7.116544E-01
1.073546E-01
-3.787882E-02
-1.620672E-01
-2.877485E-01
-3.953162E-01
-5.187137E-01
-5.719375E-01
-6.836481E-01
-7.131888E-01
-7.678274E-01
-2.686648E-01
-4.034586E-01
-5.102658E-01
-6.124449E-01
-6.874265E-01
-7.721634E-01
-1.011895E-01
-1.823553E-01
-3.271562E-01
-4.380492E-01
-5.461629E-01
-6.304289E-01
-7.116544E-01
-7.678274E-01
-7.987956E-01
-4.619501E-01
-5.317804E-01
-6.485498E-01
-7.285081E-01
-8.002085E-01
-2.686648E-01
-4.034586E-01
-5.102658E-01
-6.124449E-01
-6.874265E-01
-7.721634E-01
-7.987956E-01
-8.435630E-01
-6.037824E-01
-7.076155E-01
-7.807812E-01
-8.439021E-01
-4.619501E-01
-5.317804E-01
-6.485498E-01
-7.285081E-01
-8.002085E-01
-8.435630E-01
-8.748823E-01
-7.523829E-01
-8.002468E-01
-8.712076E-01
-6.037824E-01
-7.076155E-01
-7.807812E-01
-8.439021E-01
-8.748823E-01
-9.080581E-01
-8.469796E-01
-9.040443E-01
-7.523829E-01
-8.002468E-01
-8.712076E-01
-9.080581E-01
-9.324296E-01
-9.282723E-01
-8.469796E-01
-9.040443E-01
-9.324296E-01
-9.468829E-01
-9.282723E-01
-9.468829E-01
-9.612319E-01
-9.612319E-01
