# vtk DataFile Version 2.0
Grille
ASCII
DATASET POLYDATA
POINTS 481 float
0.000000E+00 8.750000E-01 -9.210615E-01
6.250000E-02 8.750000E-01 -9.033636E-01
1.250000E-01 8.750000E-01 -8.509499E-01
1.250000E-01 9.375000E-01 -9.033636E-01
1.250000E-01 1.000000E+00 -9.210615E-01
6.250000E-02 1.000000E+00 -9.777937E-01
0.000000E+00 1.000000E+00 -9.969498E-01
0.000000E+00 9.375000E-01 -9.777937E-01
3.750000E-02 9.125000E-01 -9.528686E-01
8.125000E-02 9.187500E-01 -9.333923E-01
8.750000E-02 9.625000E-01 -9.528686E-01
4.375000E-02 9.562500E-01 -9.782347E-01
1.875000E-01 8.750000E-01 -7.658347E-01
2.500000E-01 8.750000E-01 -6.512888E-01
2.500000E-01 9.375000E-01 -6.914045E-01
2.500000E-01 1.000000E+00 -7.049500E-01
1.875000E-01 1.000000E+00 -8.289335E-01
1.625000E-01 9.125000E-01 -8.371770E-01
2.062500E-01 9.187500E-01 -7.691335E-01
2.125000E-01 9.625000E-01 -7.774947E-01
1.687500E-01 9.562500E-01 -8.519915E-01
0.000000E+00 7.500000E-01 -7.049500E-01
6.250000E-02 7.500000E-01 -6.914045E-01
1.250000E-01 7.500000E-01 -6.512888E-01
1.250000E-01 8.125000E-01 -7.658347E-01
0.000000E+00 8.125000E-01 -8.289335E-01
3.750000E-02 7.875000E-01 -7.774947E-01
8.125000E-02 7.937500E-01 -7.691335E-01
8.750000E-02 8.375000E-01 -8.371770E-01
4.375000E-02 8.312500E-01 -8.519915E-01
1.875000E-01 7.500000E-01 -5.861445E-01
2.500000E-01 7.500000E-01 -4.984749E-01
2.500000E-01 8.125000E-01 -5.861445E-01
1.625000E-01 7.875000E-01 -6.830959E-01
2.062500E-01 7.937500E-01 -6.337811E-01
2.125000E-01 8.375000E-01 -6.830959E-01
1.687500E-01 8.312500E-01 -7.420403E-01
3.125000E-01 8.750000E-01 -5.117144E-01
3.750000E-01 8.750000E-01 -3.524750E-01
3.750000E-01 9.375000E-01 -3.741854E-01
3.750000E-01 1.000000E+00 -3.815162E-01
3.125000E-01 1.000000E+00 -5.538756E-01
2.875000E-01 9.125000E-01 -5.940327E-01
3.312500E-01 9.187500E-01 -4.877812E-01
3.375000E-01 9.625000E-01 -4.837543E-01
2.937500E-01 9.562500E-01 -5.960404E-01
4.375000E-01 8.750000E-01 -1.796902E-01
5.000000E-01 8.750000E-01 -5.639875E-17
5.000000E-01 9.375000E-01 -5.987260E-17
5.000000E-01 1.000000E+00 -6.104557E-17
4.375000E-01 1.000000E+00 -1.944953E-01
4.125000E-01 9.125000E-01 -2.604524E-01
4.562500E-01 9.187500E-01 -1.321686E-01
4.625000E-01 9.625000E-01 -1.163667E-01
4.187500E-01 9.562500E-01 -2.493475E-01
3.125000E-01 7.500000E-01 -3.916492E-01
3.750000E-01 7.500000E-01 -2.697727E-01
3.750000E-01 8.125000E-01 -3.172191E-01
2.875000E-01 7.875000E-01 -4.847020E-01
3.312500E-01 7.937500E-01 -4.019413E-01
3.375000E-01 8.375000E-01 -4.250197E-01
2.937500E-01 8.312500E-01 -5.191202E-01
4.375000E-01 7.500000E-01 -1.375289E-01
5.000000E-01 7.500000E-01 -4.316574E-17
5.000000E-01 8.125000E-01 -5.075754E-17
4.125000E-01 7.875000E-01 -2.125166E-01
4.562500E-01 7.937500E-01 -1.089096E-01
4.625000E-01 8.375000E-01 -1.022381E-01
4.187500E-01 8.312500E-01 -2.171687E-01
0.000000E+00 6.250000E-01 -3.815162E-01
6.250000E-02 6.250000E-01 -3.741854E-01
1.250000E-01 6.250000E-01 -3.524750E-01
1.250000E-01 6.875000E-01 -5.117144E-01
0.000000E+00 6.875000E-01 -5.538756E-01
3.750000E-02 6.625000E-01 -4.837543E-01
8.125000E-02 6.687500E-01 -4.877812E-01
8.750000E-02 7.125000E-01 -5.940327E-01
4.375000E-02 7.062500E-01 -5.960404E-01
1.875000E-01 6.250000E-01 -3.172191E-01
2.500000E-01 6.250000E-01 -2.697727E-01
2.500000E-01 6.875000E-01 -3.916492E-01
1.625000E-01 6.625000E-01 -4.250197E-01
2.062500E-01 6.687500E-01 -4.019413E-01
2.125000E-01 7.125000E-01 -4.847020E-01
1.687500E-01 7.062500E-01 -5.191202E-01
0.000000E+00 5.000000E-01 6.104557E-17
6.250000E-02 5.000000E-01 5.987260E-17
1.250000E-01 5.000000E-01 5.639875E-17
1.250000E-01 5.625000E-01 -1.796902E-01
0.000000E+00 5.625000E-01 -1.944953E-01
3.750000E-02 5.375000E-01 -1.163667E-01
8.125000E-02 5.437500E-01 -1.321686E-01
8.750000E-02 5.875000E-01 -2.604524E-01
4.375000E-02 5.812500E-01 -2.493475E-01
1.875000E-01 5.000000E-01 5.075754E-17
2.500000E-01 5.000000E-01 4.316574E-17
2.500000E-01 5.625000E-01 -1.375289E-01
1.625000E-01 5.375000E-01 -1.022381E-01
2.062500E-01 5.437500E-01 -1.089096E-01
2.125000E-01 5.875000E-01 -2.125166E-01
1.687500E-01 5.812500E-01 -2.171687E-01
3.125000E-01 6.250000E-01 -2.119590E-01
3.750000E-01 6.250000E-01 -1.459999E-01
3.750000E-01 6.875000E-01 -2.119590E-01
2.875000E-01 6.625000E-01 -3.015798E-01
3.312500E-01 6.687500E-01 -2.549095E-01
3.375000E-01 7.125000E-01 -3.015798E-01
2.937500E-01 7.062500E-01 -3.631686E-01
4.375000E-01 6.250000E-01 -7.443011E-02
5.000000E-01 6.250000E-01 -2.336113E-17
5.000000E-01 6.875000E-01 -3.391510E-17
4.125000E-01 6.625000E-01 -1.322270E-01
4.562500E-01 6.687500E-01 -6.906998E-02
4.625000E-01 7.125000E-01 -7.254474E-02
4.187500E-01 7.062500E-01 -1.519280E-01
3.125000E-01 5.000000E-01 3.391510E-17
3.750000E-01 5.000000E-01 2.336113E-17
3.750000E-01 5.625000E-01 -7.443011E-02
2.875000E-01 5.375000E-01 -7.254474E-02
3.312500E-01 5.437500E-01 -6.906998E-02
3.375000E-01 5.875000E-01 -1.322270E-01
2.937500E-01 5.812500E-01 -1.519280E-01
4.375000E-01 5.000000E-01 1.190940E-17
5.000000E-01 5.000000E-01 3.737963E-33
5.000000E-01 5.625000E-01 -1.190940E-17
4.125000E-01 5.375000E-01 -3.180709E-02
4.562500E-01 5.437500E-01 -1.871512E-02
4.625000E-01 5.875000E-01 -3.180709E-02
4.187500E-01 5.812500E-01 -6.355754E-02
5.625000E-01 8.750000E-01 1.796902E-01
6.250000E-01 8.750000E-01 3.524750E-01
6.250000E-01 9.375000E-01 3.741854E-01
6.250000E-01 1.000000E+00 3.815162E-01
5.625000E-01 1.000000E+00 1.944953E-01
5.375000E-01 9.125000E-01 1.127794E-01
5.812500E-01 9.187500E-01 2.435654E-01
5.875000E-01 9.625000E-01 2.687367E-01
5.437500E-01 9.562500E-01 1.353063E-01
6.875000E-01 8.750000E-01 5.117144E-01
7.500000E-01 8.750000E-01 6.512888E-01
7.500000E-01 9.375000E-01 6.914045E-01
7.500000E-01 1.000000E+00 7.049500E-01
6.875000E-01 1.000000E+00 5.538756E-01
6.625000E-01 9.125000E-01 4.688416E-01
7.062500E-01 9.187500E-01 5.822189E-01
7.125000E-01 9.625000E-01 6.129274E-01
6.687500E-01 9.562500E-01 4.993609E-01
5.625000E-01 7.500000E-01 1.375289E-01
6.250000E-01 7.500000E-01 2.697727E-01
6.250000E-01 8.125000E-01 3.172191E-01
5.375000E-01 7.875000E-01 9.202256E-02
5.812500E-01 7.937500E-01 2.007027E-01
5.875000E-01 8.375000E-01 2.361083E-01
5.437500E-01 8.312500E-01 1.178447E-01
6.875000E-01 7.500000E-01 3.916492E-01
7.500000E-01 7.500000E-01 4.984749E-01
7.500000E-01 8.125000E-01 5.861445E-01
6.625000E-01 7.875000E-01 3.825521E-01
7.062500E-01 7.937500E-01 4.797598E-01
7.125000E-01 8.375000E-01 5.385094E-01
6.687500E-01 8.312500E-01 4.349174E-01
8.125000E-01 8.750000E-01 7.658347E-01
8.750000E-01 8.750000E-01 8.509499E-01
8.750000E-01 9.375000E-01 9.033636E-01
8.750000E-01 1.000000E+00 9.210615E-01
8.125000E-01 1.000000E+00 8.289335E-01
7.875000E-01 9.125000E-01 7.535269E-01
8.312500E-01 9.187500E-01 8.322348E-01
8.375000E-01 9.625000E-01 8.638054E-01
7.937500E-01 9.562500E-01 7.873923E-01
9.375000E-01 8.750000E-01 9.033636E-01
1.000000E+00 8.750000E-01 9.210615E-01
1.000000E+00 9.375000E-01 9.777937E-01
1.000000E+00 1.000000E+00 9.969498E-01
9.375000E-01 1.000000E+00 9.777937E-01
9.125000E-01 9.125000E-01 9.234946E-01
9.562500E-01 9.187500E-01 9.555505E-01
9.625000E-01 9.625000E-01 9.831769E-01
9.187500E-01 9.562500E-01 9.555505E-01
8.125000E-01 7.500000E-01 5.861445E-01
8.750000E-01 7.500000E-01 6.512888E-01
8.750000E-01 8.125000E-01 7.658347E-01
7.875000E-01 7.875000E-01 6.148416E-01
8.312500E-01 7.937500E-01 6.857778E-01
8.375000E-01 8.375000E-01 7.589273E-01
7.937500E-01 8.312500E-01 6.857778E-01
9.375000E-01 7.500000E-01 6.914045E-01
1.000000E+00 7.500000E-01 7.049500E-01
1.000000E+00 8.125000E-01 8.289335E-01
9.125000E-01 7.875000E-01 7.535269E-01
9.562500E-01 7.937500E-01 7.873923E-01
9.625000E-01 8.375000E-01 8.638054E-01
9.187500E-01 8.312500E-01 8.322348E-01
5.625000E-01 6.250000E-01 7.443011E-02
6.250000E-01 6.250000E-01 1.459999E-01
6.250000E-01 6.875000E-01 2.119590E-01
5.375000E-01 6.625000E-01 5.725609E-02
5.812500E-01 6.687500E-01 1.272848E-01
5.875000E-01 7.125000E-01 1.675346E-01
5.437500E-01 7.062500E-01 8.244238E-02
6.875000E-01 6.250000E-01 2.119590E-01
7.500000E-01 6.250000E-01 2.697727E-01
7.500000E-01 6.875000E-01 3.916492E-01
6.625000E-01 6.625000E-01 2.380225E-01
7.062500E-01 6.687500E-01 3.042616E-01
7.125000E-01 7.125000E-01 3.821082E-01
6.687500E-01 7.062500E-01 3.042616E-01
5.625000E-01 5.000000E-01 -1.190940E-17
6.250000E-01 5.000000E-01 -2.336113E-17
6.250000E-01 5.625000E-01 7.443011E-02
5.375000E-01 5.375000E-01 1.377290E-02
5.812500E-01 5.437500E-01 3.448894E-02
5.875000E-01 5.875000E-01 7.345518E-02
5.437500E-01 5.812500E-01 3.448894E-02
6.875000E-01 5.000000E-01 -3.391510E-17
7.500000E-01 5.000000E-01 -4.316574E-17
7.500000E-01 5.625000E-01 1.375289E-01
6.625000E-01 5.375000E-01 5.725609E-02
7.062500E-01 5.437500E-01 8.244238E-02
7.125000E-01 5.875000E-01 1.675346E-01
6.687500E-01 5.812500E-01 1.272848E-01
8.125000E-01 6.250000E-01 3.172191E-01
8.750000E-01 6.250000E-01 3.524750E-01
8.750000E-01 6.875000E-01 5.117144E-01
7.875000E-01 6.625000E-01 3.825521E-01
8.312500E-01 6.687500E-01 4.349174E-01
8.375000E-01 7.125000E-01 5.385094E-01
7.937500E-01 7.062500E-01 4.797598E-01
9.375000E-01 6.250000E-01 3.741854E-01
1.000000E+00 6.250000E-01 3.815162E-01
1.000000E+00 6.875000E-01 5.538756E-01
9.125000E-01 6.625000E-01 4.688416E-01
9.562500E-01 6.687500E-01 4.993609E-01
9.625000E-01 7.125000E-01 6.129274E-01
9.187500E-01 7.062500E-01 5.822189E-01
8.125000E-01 5.000000E-01 -5.075754E-17
8.750000E-01 5.000000E-01 -5.639875E-17
8.750000E-01 5.625000E-01 1.796902E-01
7.875000E-01 5.375000E-01 9.202256E-02
8.312500E-01 5.437500E-01 1.178447E-01
8.375000E-01 5.875000E-01 2.361083E-01
7.937500E-01 5.812500E-01 2.007027E-01
9.375000E-01 5.000000E-01 -5.987260E-17
1.000000E+00 5.000000E-01 -6.104557E-17
1.000000E+00 5.625000E-01 1.944953E-01
9.125000E-01 5.375000E-01 1.127794E-01
9.562500E-01 5.437500E-01 1.353063E-01
9.625000E-01 5.875000E-01 2.687367E-01
9.187500E-01 5.812500E-01 2.435654E-01
0.000000E+00 3.750000E-01 3.815162E-01
6.250000E-02 3.750000E-01 3.741854E-01
[...]
CELL_DATA 896
SCALARS sol float 1
LOOKUP_TABLE default
-9.257646E-01
-9.298748E-01
-9.505746E-01
-8.921389E-01
-9.548318E-01
-8.959019E-01
-9.696323E-01
-8.673288E-01
-8.641774E-01
-9.548318E-01
-8.959019E-01
-8.638301E-01
-9.843260E-01
-8.194732E-01
-8.194340E-01
-9.696323E-01
-9.298748E-01
-8.638301E-01
-8.179872E-01
-9.843260E-01
-7.995399E-01
-7.704594E-01
-7.907151E-01
-9.505746E-01
-9.257646E-01
-8.179872E-01
-8.641774E-01
-7.862750E-01
-7.460109E-01
-7.246164E-01
-7.287523E-01
-8.921389E-01
-7.907151E-01
-7.862750E-01
-8.194340E-01
-7.303236E-01
-7.039423E-01
-6.641316E-01
-7.000731E-01
-8.673288E-01
-7.287523E-01
-7.303236E-01
-7.995399E-01
-6.863058E-01
-6.455754E-01
-6.182887E-01
-6.271592E-01
-6.401764E-01
-8.194732E-01
-7.039423E-01
-7.000731E-01
-6.863058E-01
-7.460109E-01
-6.343405E-01
-5.856786E-01
-5.445568E-01
-5.592848E-01
-5.855178E-01
-7.704594E-01
-6.455754E-01
-6.401764E-01
-6.343405E-01
-7.246164E-01
-5.728002E-01
-5.311761E-01
-5.607078E-01
-5.225253E-01
-4.730487E-01
-5.299889E-01
-5.856786E-01
-6.271592E-01
-5.855178E-01
-5.728002E-01
-6.641316E-01
-5.231071E-01
-4.506569E-01
-4.852848E-01
-4.485737E-01
-4.131520E-01
-4.685878E-01
-5.311761E-01
-5.607078E-01
-5.592848E-01
-5.299889E-01
-5.231071E-01
-6.182887E-01
-4.582754E-01
-4.048139E-01
-4.297364E-01
-4.486937E-01
-3.350164E-01
-4.260975E-01
-4.506569E-01
-4.852848E-01
-5.225253E-01
-4.685878E-01
-4.582754E-01
-5.445568E-01
-4.177643E-01
-3.290376E-01
-3.649046E-01
-3.813934E-01
-2.751197E-01
-2.946618E-01
-3.544544E-01
-4.048139E-01
-4.297364E-01
-4.486937E-01
-4.485737E-01
-4.260975E-01
-4.177643E-01
-4.730487E-01
-3.521325E-01
-2.642059E-01
-2.956209E-01
-3.296444E-01
-1.867365E-01
-2.139895E-01
-3.210005E-01
-3.290376E-01
-3.649046E-01
-3.813934E-01
-4.131520E-01
-3.544544E-01
-3.521325E-01
-3.065526E-01
-2.497780E-01
-1.907704E-01
-2.489681E-01
-2.665028E-01
-1.659609E-01
-1.036206E-01
-2.611038E-01
-2.642059E-01
-2.946618E-01
-2.956209E-01
-3.296444E-01
-3.350164E-01
-3.210005E-01
-3.065526E-01
-2.561494E-01
-1.663657E-01
-1.039529E-01
-1.795316E-01
-2.066061E-01
-8.284510E-02
-3.878888E-02
-2.112199E-01
-1.907704E-01
-2.497780E-01
-2.139895E-01
-2.489681E-01
-2.665028E-01
-2.751197E-01
-2.611038E-01
-2.561494E-01
-2.042895E-01
-1.427721E-01
-9.397610E-02
-4.405621E-02
-1.529850E-01
-1.864098E-01
4.510208E-02
-1.653713E-01
-1.039529E-01
-1.663657E-01
-1.659609E-01
-1.795316E-01
-2.066061E-01
-1.867365E-01
-2.112199E-01
-2.042895E-01
-1.633953E-01
-7.038256E-02
-3.407937E-02
3.759314E-02
-8.214616E-02
-1.206672E-01
1.099338E-01
8.269523E-02
-1.177417E-01
-4.405621E-02
-9.397610E-02
-1.427721E-01
-8.284510E-02
-1.529850E-01
-1.864098E-01
-1.036206E-01
-1.653713E-01
-1.633953E-01
-1.175523E-01
-3.630319E-02
3.928157E-02
9.748987E-02
-7.002455E-02
-9.784756E-02
1.995127E-01
1.638837E-01
-9.190904E-02
3.759314E-02
-3.407937E-02
-7.038256E-02
-3.878888E-02
-8.214616E-02
-1.206672E-01
-1.177417E-01
-1.175523E-01
-9.466252E-02
3.067419E-02
9.917830E-02
6.995576E-02
1.786783E-01
-2.418158E-02
-4.720491E-02
2.158695E-01
2.815827E-01
-4.783336E-02
9.748987E-02
8.269523E-02
3.928157E-02
-3.630319E-02
4.510208E-02
-7.002455E-02
-9.784756E-02
-9.190904E-02
-9.466252E-02
-5.659825E-02
7.651716E-02
1.778811E-01
1.368567E-01
2.585769E-01
2.748079E-02
-2.302333E-02
2.954959E-01
3.414795E-01
-3.541240E-02
1.786783E-01
9.917830E-02
1.638837E-01
6.995576E-02
3.067419E-02
1.099338E-01
-2.418158E-02
-4.720491E-02
-4.783336E-02
-5.659825E-02
-3.802658E-02
7.332376E-02
1.434181E-01
1.848852E-01
2.560912E-01
3.234086E-01
4.656616E-02
1.908536E-02
4.183542E-01
-1.060236E-02
2.585769E-01
1.778811E-01
2.158695E-01
1.368567E-01
7.651716E-02
1.995127E-01
2.748079E-02
-2.302333E-02
-3.541240E-02
-3.802658E-02
-1.684074E-02
1.291686E-01
2.026681E-01
2.513434E-01
3.019341E-01
3.985007E-01
8.899442E-02
4.389540E-02
4.782509E-01
4.474627E-01
1.149631E-02
3.234086E-01
2.560912E-01
1.848852E-01
2.954959E-01
1.434181E-01
7.332376E-02
2.815827E-01
4.656616E-02
1.908536E-02
-1.060236E-02
-1.684074E-02
-6.238374E-03
1.257539E-01
1.916120E-01
2.625648E-01
3.682038E-01
4.443437E-01
8.632367E-02
3.630635E-02
5.553880E-01
5.168071E-01
1.608728E-02
3.985007E-01
3.019341E-01
2.513434E-01
3.414795E-01
2.026681E-01
1.291686E-01
8.899442E-02
4.389540E-02
1.149631E-02
-6.238374E-03
4.590967E-03
1.689261E-01
2.164221E-01
3.231813E-01
4.330356E-01
3.782295E-01
5.209250E-01
1.159049E-01
6.079141E-02
5.648357E-01
6.239177E-01
2.758360E-02
4.443437E-01
4.474627E-01
3.682038E-01
2.625648E-01
4.183542E-01
1.916120E-01
1.257539E-01
8.632367E-02
3.630635E-02
1.608728E-02
4.590967E-03
4.590967E-03
1.617479E-01
2.619978E-01
3.479913E-01
4.950470E-01
4.324097E-01
5.817407E-01
9.796174E-02
4.747769E-02
6.288503E-01
6.697606E-01
1.608728E-02
5.209250E-01
4.330356E-01
5.168071E-01
3.782295E-01
3.231813E-01
4.782509E-01
2.164221E-01
1.689261E-01
1.159049E-01
6.079141E-02
2.758360E-02
4.590967E-03
-6.238374E-03
1.986605E-01
3.218945E-01
2.514144E-01
4.179870E-01
4.843955E-01
5.671709E-01
6.416374E-01
9.796174E-02
6.079141E-02
7.279156E-01
1.149631E-02
5.817407E-01
4.950470E-01
5.648357E-01
4.324097E-01
3.479913E-01
5.553880E-01
2.619978E-01
1.617479E-01
9.796174E-02
4.747769E-02
1.608728E-02
-6.238374E-03
-1.684074E-02
1.986605E-01
3.593397E-01
2.821819E-01
4.566280E-01
5.348046E-01
5.919809E-01
6.987401E-01
1.159049E-01
3.630635E-02
7.737586E-01
7.441079E-01
-1.060236E-02
6.416374E-01
5.671709E-01
4.843955E-01
6.288503E-01
4.179870E-01
3.218945E-01
6.239177E-01
2.514144E-01
1.986605E-01
9.796174E-02
6.079141E-02
1.149631E-02
-1.684074E-02
-3.802658E-02
1.617479E-01
2.514144E-01
3.302105E-01
4.240775E-01
5.214597E-01
6.410704E-01
7.235501E-01
8.632367E-02
4.389540E-02
8.267104E-01
7.910513E-01
-3.541240E-02
6.987401E-01
5.919809E-01
5.348046E-01
6.697606E-01
4.566280E-01
3.593397E-01
2.821819E-01
1.986605E-01
1.159049E-01
3.630635E-02
-1.060236E-02
-3.802658E-02
-5.659825E-02
1.689261E-01
2.619978E-01
3.593397E-01
4.240775E-01
5.664870E-01
7.009671E-01
6.289213E-01
7.838655E-01
8.899442E-02
1.908536E-02
8.278108E-01
8.712668E-01
-4.783336E-02
7.235501E-01
7.441079E-01
6.410704E-01
5.214597E-01
7.279156E-01
4.240775E-01
3.302105E-01
2.514144E-01
1.617479E-01
8.632367E-02
4.389540E-02
-3.541240E-02
-5.659825E-02
-9.466252E-02
1.257539E-01
2.164221E-01
3.218945E-01
4.566280E-01
5.664870E-01
7.368466E-01
6.621324E-01
8.163398E-01
4.656616E-02
-2.302333E-02
8.664679E-01
8.960768E-01
-9.190904E-02
7.838655E-01
7.009671E-01
7.910513E-01
6.289213E-01
5.664870E-01
7.737586E-01
4.240775E-01
3.593397E-01
2.619978E-01
1.689261E-01
8.899442E-02
1.908536E-02
-4.783336E-02
-9.466252E-02
-1.175523E-01
1.291686E-01
1.916120E-01
3.479913E-01
5.214597E-01
4.179870E-01
6.289213E-01
7.101610E-01
7.919039E-01
8.621827E-01
2.748079E-02
-4.720491E-02
9.266585E-01
-1.177417E-01
8.163398E-01
7.368466E-01
8.278108E-01
6.621324E-01
5.664870E-01
8.267104E-01
4.566280E-01
3.218945E-01
2.164221E-01
1.257539E-01
4.656616E-02
-2.302333E-02
-9.190904E-02
-1.175523E-01
-1.633953E-01
7.332376E-02
2.026681E-01
3.231813E-01
5.348046E-01
4.324097E-01
6.410704E-01
7.368466E-01
7.919039E-01
8.926027E-01
-2.418158E-02
-9.784756E-02
9.514685E-01
9.274695E-01
-1.653713E-01
8.621827E-01
7.919039E-01
7.101610E-01
8.664679E-01
6.289213E-01
5.214597E-01
8.712668E-01
4.179870E-01
3.479913E-01
1.916120E-01
1.291686E-01
2.748079E-02
-4.720491E-02
-1.177417E-01
-1.633953E-01
-2.042895E-01
7.651716E-02
2.625648E-01
1.434181E-01
3.782295E-01
4.843955E-01
5.919809E-01
7.009671E-01
8.163398E-01
8.926027E-01
-7.002455E-02
-1.206672E-01
9.721737E-01
9.448652E-01
-2.112199E-01
8.926027E-01
7.919039E-01
7.368466E-01
8.960768E-01
6.410704E-01
5.348046E-01
4.324097E-01
3.231813E-01
2.026681E-01
7.332376E-02
-2.418158E-02
-9.784756E-02
-1.653713E-01
-2.042895E-01
-2.561494E-01
3.067419E-02
2.513434E-01
1.368567E-01
3.682038E-01
4.950470E-01
5.671709E-01
7.235501E-01
8.621827E-01
7.838655E-01
9.274695E-01
-8.214616E-02
-1.864098E-01
9.647593E-01
9.859735E-01
-2.611038E-01
8.926027E-01
9.274695E-01
8.163398E-01
7.009671E-01
9.266585E-01
5.919809E-01
4.843955E-01
3.782295E-01
2.625648E-01
1.434181E-01
7.651716E-02
-7.002455E-02
-1.206672E-01
-2.112199E-01
-2.561494E-01
-3.065526E-01
6.995576E-02
-3.630319E-02
1.848852E-01
3.019341E-01
4.330356E-01
5.817407E-01
6.987401E-01
8.664679E-01
7.910513E-01
9.266585E-01
-1.529850E-01
-2.066061E-01
9.721737E-01
9.859735E-01
-3.210005E-01
9.274695E-01
8.621827E-01
9.448652E-01
7.838655E-01
7.235501E-01
9.514685E-01
5.671709E-01
4.950470E-01
3.682038E-01
2.513434E-01
1.368567E-01
3.067419E-02
-8.214616E-02
-1.864098E-01
-2.611038E-01
-3.065526E-01
-3.521325E-01
3.928157E-02
-7.038256E-02
1.778811E-01
2.560912E-01
4.443437E-01
6.416374E-01
5.209250E-01
7.441079E-01
8.278108E-01
8.960768E-01
9.514685E-01
-1.795316E-01
-2.665028E-01
-3.544544E-01
9.266585E-01
8.664679E-01
9.647593E-01
7.910513E-01
6.987401E-01
9.721737E-01
5.817407E-01
4.330356E-01
3.019341E-01
1.848852E-01
6.995576E-02
-3.630319E-02
-1.529850E-01
-2.066061E-01
-3.210005E-01
-3.521325E-01
-4.177643E-01
9.917830E-02
-3.407937E-02
-1.427721E-01
2.585769E-01
3.985007E-01
6.288503E-01
5.168071E-01
7.279156E-01
8.267104E-01
8.712668E-01
-2.489681E-01
-3.296444E-01
-4.260975E-01
9.514685E-01
8.960768E-01
8.278108E-01
9.721737E-01
7.441079E-01
6.416374E-01
9.859735E-01
5.209250E-01
4.443437E-01
2.560912E-01
1.778811E-01
3.928157E-02
-7.038256E-02
-1.795316E-01
-2.665028E-01
-3.544544E-01
-4.177643E-01
-4.582754E-01
9.748987E-02
-9.397610E-02
-1.663657E-01
3.234086E-01
1.786783E-01
4.474627E-01
5.648357E-01
6.697606E-01
7.737586E-01
-2.956209E-01
-3.813934E-01
-4.685878E-01
8.712668E-01
8.267104E-01
9.859735E-01
7.279156E-01
6.288503E-01
5.168071E-01
3.985007E-01
2.585769E-01
9.917830E-02
-3.407937E-02
-1.427721E-01
-2.489681E-01
-3.296444E-01
-4.260975E-01
-4.582754E-01
-5.231071E-01
3.759314E-02
-1.039529E-01
-2.497780E-01
2.954959E-01
1.638837E-01
4.183542E-01
5.553880E-01
6.239177E-01
-3.649046E-01
-4.486937E-01
-5.299889E-01
7.737586E-01
6.697606E-01
5.648357E-01
4.474627E-01
3.234086E-01
1.786783E-01
9.748987E-02
-9.397610E-02
-1.663657E-01
-2.956209E-01
-3.813934E-01
-4.685878E-01
-5.231071E-01
-5.728002E-01
8.269523E-02
-4.405621E-02
-1.907704E-01
-2.642059E-01
2.158695E-01
3.414795E-01
4.782509E-01
-4.297364E-01
-4.852848E-01
-5.855178E-01
6.239177E-01
5.553880E-01
4.183542E-01
2.954959E-01
1.638837E-01
3.759314E-02
-1.039529E-01
-2.497780E-01
-3.649046E-01
-4.486937E-01
-5.299889E-01
-5.728002E-01
-6.343405E-01
4.510208E-02
-8.284510E-02
-2.139895E-01
-3.290376E-01
1.995127E-01
2.815827E-01
-4.506569E-01
-5.607078E-01
-6.401764E-01
4.782509E-01
3.414795E-01
2.158695E-01
8.269523E-02
-4.405621E-02
-1.907704E-01
-2.642059E-01
-4.297364E-01
-4.852848E-01
-5.855178E-01
-6.343405E-01
-6.863058E-01
1.099338E-01
-3.878888E-02
-1.659609E-01
-2.946618E-01
-4.048139E-01
-5.311761E-01
-5.856786E-01
-7.000731E-01
2.815827E-01
1.995127E-01
4.510208E-02
-8.284510E-02
-2.139895E-01
-3.290376E-01
-4.506569E-01
-5.607078E-01
-6.401764E-01
-6.863058E-01
-7.303236E-01
-1.036206E-01
-1.867365E-01
-3.350164E-01
-4.485737E-01
-5.592848E-01
-6.455754E-01
-7.287523E-01
1.099338E-01
-3.878888E-02
-1.659609E-01
-2.946618E-01
-4.048139E-01
-5.311761E-01
-5.856786E-01
-7.000731E-01
-7.303236E-01
-7.862750E-01
-2.751197E-01
-4.131520E-01
-5.225253E-01
-6.271592E-01
-7.039423E-01
-7.907151E-01
-1.036206E-01
-1.867365E-01
-3.350164E-01
-4.485737E-01
-5.592848E-01
-6.455754E-01
-7.287523E-01
-7.862750E-01
-8.179872E-01
-4.730487E-01
-5.445568E-01
-6.641316E-01
-7.460109E-01
-8.194340E-01
-2.751197E-01
-4.131520E-01
-5.225253E-01
-6.271592E-01
-7.039423E-01
-7.907151E-01
-8.179872E-01
-8.638301E-01
-6.182887E-01
-7.246164E-01
-7.995399E-01
-8.641774E-01
-4.730487E-01
-5.445568E-01
-6.641316E-01
-7.460109E-01
-8.194340E-01
-8.638301E-01
-8.959019E-01
-7.704594E-01
-8.194732E-01
-8.921389E-01
-6.182887E-01
-7.246164E-01
-7.995399E-01
-8.641774E-01
-8.959019E-01
-9.298748E-01
-8.673288E-01
-9.257646E-01
-7.704594E-01
-8.194732E-01
-8.921389E-01
-9.298748E-01
-9.548318E-01
-9.505746E-01
-8.673288E-01
-9.257646E-01
-9.548318E-01
-9.696323E-01
-9.505746E-01
-9.696323E-01
-9.843260E-01
-9.843260E-01
