# vtk DataFile Version 2.0
Grille
ASCII
DATASET POLYDATA
POINTS 481 float
0.000000E+00 8.750000E-01 -7.697709E-01
6.250000E-02 8.750000E-01 -7.549800E-01
1.250000E-01 8.750000E-01 -7.111756E-01
1.250000E-01 9.375000E-01 -7.549800E-01
1.250000E-01 1.000000E+00 -7.697709E-01
6.250000E-02 1.000000E+00 -8.171844E-01
0.000000E+00 1.000000E+00 -8.331940E-01
0.000000E+00 9.375000E-01 -8.171844E-01
3.750000E-02 9.125000E-01 -7.963535E-01
8.125000E-02 9.187500E-01 -7.800762E-01
8.750000E-02 9.625000E-01 -7.963535E-01
4.375000E-02 9.562500E-01 -8.175530E-01
1.875000E-01 8.750000E-01 -6.400411E-01
2.500000E-01 8.750000E-01 -5.443102E-01
2.500000E-01 9.375000E-01 -5.778367E-01
2.500000E-01 1.000000E+00 -5.891572E-01
1.875000E-01 1.000000E+00 -6.927755E-01
1.625000E-01 9.125000E-01 -6.996650E-01
2.062500E-01 9.187500E-01 -6.427981E-01
2.125000E-01 9.625000E-01 -6.497859E-01
1.687500E-01 9.562500E-01 -7.120461E-01
0.000000E+00 7.500000E-01 -5.891572E-01
6.250000E-02 7.500000E-01 -5.778367E-01
1.250000E-01 7.500000E-01 -5.443102E-01
1.250000E-01 8.125000E-01 -6.400411E-01
0.000000E+00 8.125000E-01 -6.927755E-01
3.750000E-02 7.875000E-01 -6.497859E-01
8.125000E-02 7.937500E-01 -6.427981E-01
8.750000E-02 8.375000E-01 -6.996650E-01
4.375000E-02 8.312500E-01 -7.120461E-01
1.875000E-01 7.500000E-01 -4.898663E-01
2.500000E-01 7.500000E-01 -4.165970E-01
2.500000E-01 8.125000E-01 -4.898663E-01
1.625000E-01 7.875000E-01 -5.708928E-01
2.062500E-01 7.937500E-01 -5.296783E-01
2.125000E-01 8.375000E-01 -5.708928E-01
1.687500E-01 8.312500E-01 -6.201552E-01
3.125000E-01 8.750000E-01 -4.276618E-01
3.750000E-01 8.750000E-01 -2.945786E-01
3.750000E-01 9.375000E-01 -3.127229E-01
3.750000E-01 1.000000E+00 -3.188496E-01
3.125000E-01 1.000000E+00 -4.628978E-01
2.875000E-01 9.125000E-01 -4.964588E-01
3.312500E-01 9.187500E-01 -4.076599E-01
3.375000E-01 9.625000E-01 -4.042944E-01
2.937500E-01 9.562500E-01 -4.981367E-01
4.375000E-01 8.750000E-01 -1.501749E-01
5.000000E-01 8.750000E-01 -4.713487E-17
5.000000E-01 9.375000E-01 -5.003812E-17
5.000000E-01 1.000000E+00 -5.101842E-17
4.375000E-01 1.000000E+00 -1.625481E-01
4.125000E-01 9.125000E-01 -2.176713E-01
4.562500E-01 9.187500E-01 -1.104590E-01
4.625000E-01 9.625000E-01 -9.725264E-02
4.187500E-01 9.562500E-01 -2.083905E-01
3.125000E-01 7.500000E-01 -3.273182E-01
3.750000E-01 7.500000E-01 -2.254607E-01
3.750000E-01 8.125000E-01 -2.651137E-01
2.875000E-01 7.875000E-01 -4.050864E-01
3.312500E-01 7.937500E-01 -3.359197E-01
3.375000E-01 8.375000E-01 -3.552073E-01
2.937500E-01 8.312500E-01 -4.338512E-01
4.375000E-01 7.500000E-01 -1.149389E-01
5.000000E-01 7.500000E-01 -3.607547E-17
5.000000E-01 8.125000E-01 -4.242027E-17
4.125000E-01 7.875000E-01 -1.776093E-01
4.562500E-01 7.937500E-01 -9.102042E-02
4.625000E-01 8.375000E-01 -8.544481E-02
4.187500E-01 8.312500E-01 -1.814973E-01
0.000000E+00 6.250000E-01 -3.188496E-01
6.250000E-02 6.250000E-01 -3.127229E-01
1.250000E-01 6.250000E-01 -2.945786E-01
1.250000E-01 6.875000E-01 -4.276618E-01
0.000000E+00 6.875000E-01 -4.628978E-01
3.750000E-02 6.625000E-01 -4.042944E-01
8.125000E-02 6.687500E-01 -4.076599E-01
8.750000E-02 7.125000E-01 -4.964588E-01
4.375000E-02 7.062500E-01 -4.981367E-01
1.875000E-01 6.250000E-01 -2.651137E-01
2.500000E-01 6.250000E-01 -2.254607E-01
2.500000E-01 6.875000E-01 -3.273182E-01
1.625000E-01 6.625000E-01 -3.552073E-01
2.062500E-01 6.687500E-01 -3.359197E-01
2.125000E-01 7.125000E-01 -4.050864E-01
1.687500E-01 7.062500E-01 -4.338512E-01
0.000000E+00 5.000000E-01 5.101842E-17
6.250000E-02 5.000000E-01 5.003812E-17
1.250000E-01 5.000000E-01 4.713487E-17
1.250000E-01 5.625000E-01 -1.501749E-01
0.000000E+00 5.625000E-01 -1.625481E-01
3.750000E-02 5.375000E-01 -9.725264E-02
8.125000E-02 5.437500E-01 -1.104590E-01
8.750000E-02 5.875000E-01 -2.176713E-01
4.375000E-02 5.812500E-01 -2.083905E-01
1.875000E-01 5.000000E-01 4.242027E-17
2.500000E-01 5.000000E-01 3.607547E-17
2.500000E-01 5.625000E-01 -1.149389E-01
1.625000E-01 5.375000E-01 -8.544481E-02
2.062500E-01 5.437500E-01 -9.102042E-02
2.125000E-01 5.875000E-01 -1.776093E-01
1.687500E-01 5.812500E-01 -1.814973E-01
3.125000E-01 6.250000E-01 -1.771433E-01
3.750000E-01 6.250000E-01 -1.220184E-01
3.750000E-01 6.875000E-01 -1.771433E-01
2.875000E-01 6.625000E-01 -2.520432E-01
3.312500E-01 6.687500E-01 -2.130389E-01
3.375000E-01 7.125000E-01 -2.520432E-01
2.937500E-01 7.062500E-01 -3.035157E-01
4.375000E-01 6.250000E-01 -6.220446E-02
5.000000E-01 6.250000E-01 -1.952390E-17
5.000000E-01 6.875000E-01 -2.834432E-17
4.125000E-01 6.625000E-01 -1.105078E-01
4.562500E-01 6.687500E-01 -5.772477E-02
4.625000E-01 7.125000E-01 -6.062877E-02
4.187500E-01 7.062500E-01 -1.269728E-01
3.125000E-01 5.000000E-01 2.834432E-17
3.750000E-01 5.000000E-01 1.952390E-17
3.750000E-01 5.625000E-01 -6.220446E-02
2.875000E-01 5.375000E-01 -6.062877E-02
3.312500E-01 5.437500E-01 -5.772477E-02
3.375000E-01 5.875000E-01 -1.105078E-01
2.937500E-01 5.812500E-01 -1.269728E-01
4.375000E-01 5.000000E-01 9.953200E-18
5.000000E-01 5.000000E-01 3.123977E-33
5.000000E-01 5.625000E-01 -9.953200E-18
4.125000E-01 5.375000E-01 -2.658256E-02
4.562500E-01 5.437500E-01 -1.564104E-02
4.625000E-01 5.875000E-01 -2.658256E-02
4.187500E-01 5.812500E-01 -5.311778E-02
5.625000E-01 8.750000E-01 1.501749E-01
6.250000E-01 8.750000E-01 2.945786E-01
6.250000E-01 9.375000E-01 3.127229E-01
6.250000E-01 1.000000E+00 3.188496E-01
5.625000E-01 1.000000E+00 1.625481E-01
5.375000E-01 9.125000E-01 9.425464E-02
5.812500E-01 9.187500E-01 2.035582E-01
5.875000E-01 9.625000E-01 2.245949E-01
5.437500E-01 9.562500E-01 1.130813E-01
6.875000E-01 8.750000E-01 4.276618E-01
7.500000E-01 8.750000E-01 5.443102E-01
7.500000E-01 9.375000E-01 5.778367E-01
7.500000E-01 1.000000E+00 5.891572E-01
6.875000E-01 1.000000E+00 4.628978E-01
6.625000E-01 9.125000E-01 3.918312E-01
7.062500E-01 9.187500E-01 4.865855E-01
7.125000E-01 9.625000E-01 5.122499E-01
6.687500E-01 9.562500E-01 4.173375E-01
5.625000E-01 7.500000E-01 1.149389E-01
6.250000E-01 7.500000E-01 2.254607E-01
6.250000E-01 8.125000E-01 2.651137E-01
5.375000E-01 7.875000E-01 7.690723E-02
5.812500E-01 7.937500E-01 1.677359E-01
5.875000E-01 8.375000E-01 1.973259E-01
5.437500E-01 8.312500E-01 9.848792E-02
6.875000E-01 7.500000E-01 3.273182E-01
7.500000E-01 7.500000E-01 4.165970E-01
7.500000E-01 8.125000E-01 4.898663E-01
6.625000E-01 7.875000E-01 3.197153E-01
7.062500E-01 7.937500E-01 4.009560E-01
7.125000E-01 8.375000E-01 4.500556E-01
6.687500E-01 8.312500E-01 3.634792E-01
8.125000E-01 8.750000E-01 6.400411E-01
8.750000E-01 8.750000E-01 7.111756E-01
8.750000E-01 9.375000E-01 7.549800E-01
8.750000E-01 1.000000E+00 7.697709E-01
8.125000E-01 1.000000E+00 6.927755E-01
7.875000E-01 9.125000E-01 6.297550E-01
8.312500E-01 9.187500E-01 6.955346E-01
8.375000E-01 9.625000E-01 7.219195E-01
7.937500E-01 9.562500E-01 6.580578E-01
9.375000E-01 8.750000E-01 7.549800E-01
1.000000E+00 8.750000E-01 7.697709E-01
1.000000E+00 9.375000E-01 8.171844E-01
1.000000E+00 1.000000E+00 8.331940E-01
9.375000E-01 1.000000E+00 8.171844E-01
9.125000E-01 9.125000E-01 7.718044E-01
9.562500E-01 9.187500E-01 7.985948E-01
9.625000E-01 9.625000E-01 8.216834E-01
9.187500E-01 9.562500E-01 7.985948E-01
8.125000E-01 7.500000E-01 4.898663E-01
8.750000E-01 7.500000E-01 5.443102E-01
8.750000E-01 8.125000E-01 6.400411E-01
7.875000E-01 7.875000E-01 5.138497E-01
8.312500E-01 7.937500E-01 5.731341E-01
8.375000E-01 8.375000E-01 6.342684E-01
7.937500E-01 8.312500E-01 5.731341E-01
9.375000E-01 7.500000E-01 5.778367E-01
1.000000E+00 7.500000E-01 5.891572E-01
1.000000E+00 8.125000E-01 6.927755E-01
9.125000E-01 7.875000E-01 6.297550E-01
9.562500E-01 7.937500E-01 6.580578E-01
9.625000E-01 8.375000E-01 7.219195E-01
9.187500E-01 8.312500E-01 6.955346E-01
5.625000E-01 6.250000E-01 6.220446E-02
6.250000E-01 6.250000E-01 1.220184E-01
6.250000E-01 6.875000E-01 1.771433E-01
5.375000E-01 6.625000E-01 4.785139E-02
5.812500E-01 6.687500E-01 1.063774E-01
5.875000E-01 7.125000E-01 1.400159E-01
5.437500E-01 7.062500E-01 6.890066E-02
6.875000E-01 6.250000E-01 1.771433E-01
7.500000E-01 6.250000E-01 2.254607E-01
7.500000E-01 6.875000E-01 3.273182E-01
6.625000E-01 6.625000E-01 1.989257E-01
7.062500E-01 6.687500E-01 2.542846E-01
7.125000E-01 7.125000E-01 3.193444E-01
6.687500E-01 7.062500E-01 2.542846E-01
5.625000E-01 5.000000E-01 -9.953200E-18
6.250000E-01 5.000000E-01 -1.952390E-17
6.250000E-01 5.625000E-01 6.220446E-02
5.375000E-01 5.375000E-01 1.151061E-02
5.812500E-01 5.437500E-01 2.882390E-02
5.875000E-01 5.875000E-01 6.138967E-02
5.437500E-01 5.812500E-01 2.882390E-02
6.875000E-01 5.000000E-01 -2.834432E-17
7.500000E-01 5.000000E-01 -3.607547E-17
7.500000E-01 5.625000E-01 1.149389E-01
6.625000E-01 5.375000E-01 4.785139E-02
7.062500E-01 5.437500E-01 6.890066E-02
7.125000E-01 5.875000E-01 1.400159E-01
6.687500E-01 5.812500E-01 1.063774E-01
8.125000E-01 6.250000E-01 2.651137E-01
8.750000E-01 6.250000E-01 2.945786E-01
8.750000E-01 6.875000E-01 4.276618E-01
7.875000E-01 6.625000E-01 3.197153E-01
8.312500E-01 6.687500E-01 3.634792E-01
8.375000E-01 7.125000E-01 4.500556E-01
7.937500E-01 7.062500E-01 4.009560E-01
9.375000E-01 6.250000E-01 3.127229E-01
1.000000E+00 6.250000E-01 3.188496E-01
1.000000E+00 6.875000E-01 4.628978E-01
9.125000E-01 6.625000E-01 3.918312E-01
9.562500E-01 6.687500E-01 4.173375E-01
9.625000E-01 7.125000E-01 5.122499E-01
9.187500E-01 7.062500E-01 4.865855E-01
8.125000E-01 5.000000E-01 -4.242027E-17
8.750000E-01 5.000000E-01 -4.713487E-17
8.750000E-01 5.625000E-01 1.501749E-01
7.875000E-01 5.375000E-01 7.690723E-02
8.312500E-01 5.437500E-01 9.848792E-02
8.375000E-01 5.875000E-01 1.973259E-01
7.937500E-01 5.812500E-01 1.677359E-01
9.375000E-01 5.000000E-01 -5.003812E-17
1.000000E+00 5.000000E-01 -5.101842E-17
1.000000E+00 5.625000E-01 1.625481E-01
9.125000E-01 5.375000E-01 9.425464E-02
9.562500E-01 5.437500E-01 1.130813E-01
9.625000E-01 5.875000E-01 2.245949E-01
9.187500E-01 5.812500E-01 2.035582E-01
0.000000E+00 3.750000E-01 3.188496E-01
6.250000E-02 3.750000E-01 3.127229E-01
[...]
CELL_DATA 896
SCALARS sol float 1
LOOKUP_TABLE default
-7.737015E-01
-7.771366E-01
-7.944363E-01
-7.455990E-01
-7.979942E-01
-7.487439E-01
-8.103636E-01
-7.248642E-01
-7.222304E-01
-7.979942E-01
-7.487439E-01
-7.219402E-01
-8.226438E-01
-6.848692E-01
-6.848364E-01
-8.103636E-01
-7.771366E-01
-7.219402E-01
-6.836272E-01
-8.226438E-01
-6.682101E-01
-6.439062E-01
-6.608348E-01
-7.944363E-01
-7.737015E-01
-6.836272E-01
-7.222304E-01
-6.571240E-01
-6.234736E-01
-6.055932E-01
-6.090498E-01
-7.455990E-01
-6.608348E-01
-6.571240E-01
-6.848364E-01
-6.103630E-01
-5.883150E-01
-5.550435E-01
-5.850814E-01
-7.248642E-01
-6.090498E-01
-6.103630E-01
-6.682101E-01
-5.735754E-01
-5.395352E-01
-5.167306E-01
-5.241441E-01
-5.350231E-01
-6.848692E-01
-5.883150E-01
-5.850814E-01
-5.735754E-01
-6.234736E-01
-5.301458E-01
-4.894770E-01
-4.551096E-01
-4.674185E-01
-4.893426E-01
-6.439062E-01
-5.395352E-01
-5.350231E-01
-5.301458E-01
-6.055932E-01
-4.787139E-01
-4.439268E-01
-4.686077E-01
-4.366970E-01
-3.953472E-01
-4.429346E-01
-4.894770E-01
-5.241441E-01
-4.893426E-01
-4.787139E-01
-5.550435E-01
-4.371832E-01
-3.766334E-01
-4.055734E-01
-3.748924E-01
-3.452890E-01
-3.916191E-01
-4.439268E-01
-4.686077E-01
-4.674185E-01
-4.429346E-01
-4.371832E-01
-5.167306E-01
-3.830005E-01
-3.383205E-01
-3.591492E-01
-3.749928E-01
-2.799877E-01
-3.561081E-01
-3.766334E-01
-4.055734E-01
-4.366970E-01
-3.916191E-01
-3.830005E-01
-4.551096E-01
-3.491436E-01
-2.749910E-01
-3.049665E-01
-3.187469E-01
-2.299294E-01
-2.462616E-01
-2.962329E-01
-3.383205E-01
-3.591492E-01
-3.749928E-01
-3.748924E-01
-3.561081E-01
-3.491436E-01
-3.953472E-01
-2.942924E-01
-2.208083E-01
-2.470632E-01
-2.754980E-01
-1.560637E-01
-1.788403E-01
-2.682740E-01
-2.749910E-01
-3.049665E-01
-3.187469E-01
-3.452890E-01
-2.962329E-01
-2.942924E-01
-2.561993E-01
-2.087502E-01
-1.594351E-01
-2.080734E-01
-2.227279E-01
-1.387007E-01
-8.660024E-02
-2.182157E-01
-2.208083E-01
-2.462616E-01
-2.470632E-01
-2.754980E-01
-2.799877E-01
-2.682740E-01
-2.561993E-01
-2.140751E-01
-1.390390E-01
-8.687797E-02
-1.500423E-01
-1.726696E-01
-6.923723E-02
-3.241755E-02
-1.765256E-01
-1.594351E-01
-2.087502E-01
-1.788403E-01
-2.080734E-01
-2.227279E-01
-2.299294E-01
-2.182157E-01
-2.140751E-01
-1.707335E-01
-1.193208E-01
-7.853989E-02
-3.681968E-02
-1.278562E-01
-1.557908E-01
3.769376E-02
-1.382080E-01
-8.687797E-02
-1.390390E-01
-1.387007E-01
-1.500423E-01
-1.726696E-01
-1.560637E-01
-1.765256E-01
-1.707335E-01
-1.365565E-01
-5.882174E-02
-2.848160E-02
3.141821E-02
-6.865309E-02
-1.008468E-01
9.187646E-02
6.911198E-02
-9.840179E-02
-3.681968E-02
-7.853989E-02
-1.193208E-01
-6.923723E-02
-1.278562E-01
-1.557908E-01
-8.660024E-02
-1.382080E-01
-1.365565E-01
-9.824358E-02
-3.034014E-02
3.282931E-02
8.147650E-02
-5.852254E-02
-8.177543E-02
1.667414E-01
1.369647E-01
-7.681235E-02
3.141821E-02
-2.848160E-02
-5.882174E-02
-3.241755E-02
-6.865309E-02
-1.008468E-01
-9.840179E-02
-9.824358E-02
-7.911356E-02
2.563574E-02
8.288759E-02
5.846505E-02
1.493292E-01
-2.020959E-02
-3.945118E-02
1.804114E-01
2.353309E-01
-3.997641E-02
8.147650E-02
6.911198E-02
3.282931E-02
-3.034014E-02
3.769376E-02
-5.852254E-02
-8.177543E-02
-7.681235E-02
-7.911356E-02
-4.730160E-02
6.394870E-02
1.486629E-01
1.143770E-01
2.161039E-01
2.296689E-02
-1.924159E-02
2.469587E-01
2.853891E-01
-2.959567E-02
1.493292E-01
8.288759E-02
1.369647E-01
5.846505E-02
2.563574E-02
9.187646E-02
-2.020959E-02
-3.945118E-02
-3.997641E-02
-4.730160E-02
-3.178046E-02
6.127984E-02
1.198607E-01
1.545166E-01
2.140265E-01
2.702866E-01
3.891735E-02
1.595046E-02
3.496367E-01
-8.860853E-03
2.161039E-01
1.486629E-01
1.804114E-01
1.143770E-01
6.394870E-02
1.667414E-01
2.296689E-02
-1.924159E-02
-2.959567E-02
-3.178046E-02
-1.407453E-02
1.079518E-01
1.693785E-01
2.100585E-01
2.523394E-01
3.330442E-01
7.437648E-02
3.668528E-02
3.996949E-01
3.739639E-01
9.607966E-03
2.702866E-01
2.140265E-01
1.545166E-01
2.469587E-01
1.198607E-01
6.127984E-02
2.353309E-01
3.891735E-02
1.595046E-02
-8.860853E-03
-1.407453E-02
-5.213679E-03
1.050980E-01
1.601385E-01
2.194368E-01
3.077238E-01
3.713572E-01
7.214442E-02
3.034279E-02
4.641617E-01
4.319181E-01
1.344484E-02
3.330442E-01
2.523394E-01
2.100585E-01
2.853891E-01
1.693785E-01
1.079518E-01
7.437648E-02
3.668528E-02
9.607966E-03
-5.213679E-03
3.836870E-03
1.411789E-01
1.808733E-01
2.700966E-01
3.619065E-01
3.161028E-01
4.353595E-01
9.686677E-02
5.080601E-02
4.720576E-01
5.214350E-01
2.305280E-02
3.713572E-01
3.739639E-01
3.077238E-01
2.194368E-01
3.496367E-01
1.601385E-01
1.050980E-01
7.214442E-02
3.034279E-02
1.344484E-02
3.836870E-03
3.836870E-03
1.351797E-01
2.189629E-01
2.908314E-01
4.137322E-01
3.613835E-01
4.861858E-01
8.187086E-02
3.967916E-02
5.255573E-01
5.597479E-01
1.344484E-02
4.353595E-01
3.619065E-01
4.319181E-01
3.161028E-01
2.700966E-01
3.996949E-01
1.808733E-01
1.411789E-01
9.686677E-02
5.080601E-02
2.305280E-02
3.836870E-03
-5.213679E-03
1.660291E-01
2.690211E-01
2.101179E-01
3.493298E-01
4.048303E-01
4.740092E-01
5.362441E-01
8.187086E-02
5.080601E-02
6.083505E-01
9.607966E-03
4.861858E-01
4.137322E-01
4.720576E-01
3.613835E-01
2.908314E-01
4.641617E-01
2.189629E-01
1.351797E-01
8.187086E-02
3.967916E-02
1.344484E-02
-5.213679E-03
-1.407453E-02
1.660291E-01
3.003157E-01
2.358316E-01
3.816237E-01
4.469593E-01
4.947440E-01
5.839673E-01
9.686677E-02
3.034279E-02
6.466635E-01
6.218832E-01
-8.860853E-03
5.362441E-01
4.740092E-01
4.048303E-01
5.255573E-01
3.493298E-01
2.690211E-01
5.214350E-01
2.101179E-01
1.660291E-01
8.187086E-02
5.080601E-02
9.607966E-03
-1.407453E-02
-3.178046E-02
1.351797E-01
2.101179E-01
2.759712E-01
3.544199E-01
4.358064E-01
5.357702E-01
6.047021E-01
7.214442E-02
3.668528E-02
6.909176E-01
6.611158E-01
-2.959567E-02
5.839673E-01
4.947440E-01
4.469593E-01
5.597479E-01
3.816237E-01
3.003157E-01
2.358316E-01
1.660291E-01
9.686677E-02
3.034279E-02
-8.860853E-03
-3.178046E-02
-4.730160E-02
1.411789E-01
2.189629E-01
3.003157E-01
3.544199E-01
4.734376E-01
5.858285E-01
5.256167E-01
6.551102E-01
7.437648E-02
1.595046E-02
6.918373E-01
7.281553E-01
-3.997641E-02
6.047021E-01
6.218832E-01
5.357702E-01
4.358064E-01
6.083505E-01
3.544199E-01
2.759712E-01
2.101179E-01
1.351797E-01
7.214442E-02
3.668528E-02
-2.959567E-02
-4.730160E-02
-7.911356E-02
1.050980E-01
1.808733E-01
2.690211E-01
3.816237E-01
4.734376E-01
6.158145E-01
5.533726E-01
6.822504E-01
3.891735E-02
-1.924159E-02
7.241447E-01
7.488901E-01
-7.681235E-02
6.551102E-01
5.858285E-01
6.611158E-01
5.256167E-01
4.734376E-01
6.466635E-01
3.544199E-01
3.003157E-01
2.189629E-01
1.411789E-01
7.437648E-02
1.595046E-02
-3.997641E-02
-7.911356E-02
-9.824358E-02
1.079518E-01
1.601385E-01
2.908314E-01
4.358064E-01
3.493298E-01
5.256167E-01
5.935122E-01
6.618284E-01
7.205634E-01
2.296689E-02
-3.945118E-02
7.744486E-01
-9.840179E-02
6.822504E-01
6.158145E-01
6.918373E-01
5.533726E-01
4.734376E-01
6.909176E-01
3.816237E-01
2.690211E-01
1.808733E-01
1.050980E-01
3.891735E-02
-1.924159E-02
-7.681235E-02
-9.824358E-02
-1.365565E-01
6.127984E-02
1.693785E-01
2.700966E-01
4.469593E-01
3.613835E-01
5.357702E-01
6.158145E-01
6.618284E-01
7.459866E-01
-2.020959E-02
-8.177543E-02
7.951834E-01
7.751264E-01
-1.382080E-01
7.205634E-01
6.618284E-01
5.935122E-01
7.241447E-01
5.256167E-01
4.358064E-01
7.281553E-01
3.493298E-01
2.908314E-01
1.601385E-01
1.079518E-01
2.296689E-02
-3.945118E-02
-9.840179E-02
-1.365565E-01
-1.707335E-01
6.394870E-02
2.194368E-01
1.198607E-01
3.161028E-01
4.048303E-01
4.947440E-01
5.858285E-01
6.822504E-01
7.459866E-01
-5.852254E-02
-1.008468E-01
8.124876E-01
7.896647E-01
-1.765256E-01
7.459866E-01
6.618284E-01
6.158145E-01
7.488901E-01
5.357702E-01
4.469593E-01
3.613835E-01
2.700966E-01
1.693785E-01
6.127984E-02
-2.020959E-02
-8.177543E-02
-1.382080E-01
-1.707335E-01
-2.140751E-01
2.563574E-02
2.100585E-01
1.143770E-01
3.077238E-01
4.137322E-01
4.740092E-01
6.047021E-01
7.205634E-01
6.551102E-01
7.751264E-01
-6.865309E-02
-1.557908E-01
8.062910E-01
8.240206E-01
-2.182157E-01
7.459866E-01
7.751264E-01
6.822504E-01
5.858285E-01
7.744486E-01
4.947440E-01
4.048303E-01
3.161028E-01
2.194368E-01
1.198607E-01
6.394870E-02
-5.852254E-02
-1.008468E-01
-1.765256E-01
-2.140751E-01
-2.561993E-01
5.846505E-02
-3.034014E-02
1.545166E-01
2.523394E-01
3.619065E-01
4.861858E-01
5.839673E-01
7.241447E-01
6.611158E-01
7.744486E-01
-1.278562E-01
-1.726696E-01
8.124876E-01
8.240206E-01
-2.682740E-01
7.751264E-01
7.205634E-01
7.896647E-01
6.551102E-01
6.047021E-01
7.951834E-01
4.740092E-01
4.137322E-01
3.077238E-01
2.100585E-01
1.143770E-01
2.563574E-02
-6.865309E-02
-1.557908E-01
-2.182157E-01
-2.561993E-01
-2.942924E-01
3.282931E-02
-5.882174E-02
1.486629E-01
2.140265E-01
3.713572E-01
5.362441E-01
4.353595E-01
6.218832E-01
6.918373E-01
7.488901E-01
7.951834E-01
-1.500423E-01
-2.227279E-01
-2.962329E-01
7.744486E-01
7.241447E-01
8.062910E-01
6.611158E-01
5.839673E-01
8.124876E-01
4.861858E-01
3.619065E-01
2.523394E-01
1.545166E-01
5.846505E-02
-3.034014E-02
-1.278562E-01
-1.726696E-01
-2.682740E-01
-2.942924E-01
-3.491436E-01
8.288759E-02
-2.848160E-02
-1.193208E-01
2.161039E-01
3.330442E-01
5.255573E-01
4.319181E-01
6.083505E-01
6.909176E-01
7.281553E-01
-2.080734E-01
-2.754980E-01
-3.561081E-01
7.951834E-01
7.488901E-01
6.918373E-01
8.124876E-01
6.218832E-01
5.362441E-01
8.240206E-01
4.353595E-01
3.713572E-01
2.140265E-01
1.486629E-01
3.282931E-02
-5.882174E-02
-1.500423E-01
-2.227279E-01
-2.962329E-01
-3.491436E-01
-3.830005E-01
8.147650E-02
-7.853989E-02
-1.390390E-01
2.702866E-01
1.493292E-01
3.739639E-01
4.720576E-01
5.597479E-01
6.466635E-01
-2.470632E-01
-3.187469E-01
-3.916191E-01
7.281553E-01
6.909176E-01
8.240206E-01
6.083505E-01
5.255573E-01
4.319181E-01
3.330442E-01
2.161039E-01
8.288759E-02
-2.848160E-02
-1.193208E-01
-2.080734E-01
-2.754980E-01
-3.561081E-01
-3.830005E-01
-4.371832E-01
3.141821E-02
-8.687797E-02
-2.087502E-01
2.469587E-01
1.369647E-01
3.496367E-01
4.641617E-01
5.214350E-01
-3.049665E-01
-3.749928E-01
-4.429346E-01
6.466635E-01
5.597479E-01
4.720576E-01
3.739639E-01
2.702866E-01
1.493292E-01
8.147650E-02
-7.853989E-02
-1.390390E-01
-2.470632E-01
-3.187469E-01
-3.916191E-01
-4.371832E-01
-4.787139E-01
6.911198E-02
-3.681968E-02
-1.594351E-01
-2.208083E-01
1.804114E-01
2.853891E-01
3.996949E-01
-3.591492E-01
-4.055734E-01
-4.893426E-01
5.214350E-01
4.641617E-01
3.496367E-01
2.469587E-01
1.369647E-01
3.141821E-02
-8.687797E-02
-2.087502E-01
-3.049665E-01
-3.749928E-01
-4.429346E-01
-4.787139E-01
-5.301458E-01
3.769376E-02
-6.923723E-02
-1.788403E-01
-2.749910E-01
1.667414E-01
2.353309E-01
-3.766334E-01
-4.686077E-01
-5.350231E-01
3.996949E-01
2.853891E-01
1.804114E-01
6.911198E-02
-3.681968E-02
-1.594351E-01
-2.208083E-01
-3.591492E-01
-4.055734E-01
-4.893426E-01
-5.301458E-01
-5.735754E-01
9.187646E-02
-3.241755E-02
-1.387007E-01
-2.462616E-01
-3.383205E-01
-4.439268E-01
-4.894770E-01
-5.850814E-01
2.353309E-01
1.667414E-01
3.769376E-02
-6.923723E-02
-1.788403E-01
-2.749910E-01
-3.766334E-01
-4.686077E-01
-5.350231E-01
-5.735754E-01
-6.103630E-01
-8.660024E-02
-1.560637E-01
-2.799877E-01
-3.748924E-01
-4.674185E-01
-5.395352E-01
-6.090498E-01
9.187646E-02
-3.241755E-02
-1.387007E-01
-2.462616E-01
-3.383205E-01
-4.439268E-01
-4.894770E-01
-5.850814E-01
-6.103630E-01
-6.571240E-01
-2.299294E-01
-3.452890E-01
-4.366970E-01
-5.241441E-01
-5.883150E-01
-6.608348E-01
-8.660024E-02
-1.560637E-01
-2.799877E-01
-3.748924E-01
-4.674185E-01
-5.395352E-01
-6.090498E-01
-6.571240E-01
-6.836272E-01
-3.953472E-01
-4.551096E-01
-5.550435E-01
-6.234736E-01
-6.848364E-01
-2.299294E-01
-3.452890E-01
-4.366970E-01
-5.241441E-01
-5.883150E-01
-6.608348E-01
-6.836272E-01
-7.219402E-01
-5.167306E-01
-6.055932E-01
-6.682101E-01
-7.222304E-01
-3.953472E-01
-4.551096E-01
-5.550435E-01
-6.234736E-01
-6.848364E-01
-7.219402E-01
-7.487439E-01
-6.439062E-01
-6.848692E-01
-7.455990E-01
-5.167306E-01
-6.055932E-01
-6.682101E-01
-7.222304E-01
-7.487439E-01
-7.771366E-01
-7.248642E-01
-7.737015E-01
-6.439062E-01
-6.848692E-01
-7.455990E-01
-7.771366E-01
-7.979942E-01
-7.944363E-01
-7.248642E-01
-7.737015E-01
-7.979942E-01
-8.103636E-01
-7.944363E-01
-8.103636E-01
-8.226438E-01
-8.226438E-01
