# vtk DataFile Version 2.0
Grille
ASCII
DATASET POLYDATA
POINTS 481 float
0.000000E+00 8.750000E-01 -5.554461E-01
6.250000E-02 8.750000E-01 -5.447733E-01
1.250000E-01 8.750000E-01 -5.131652E-01
1.250000E-01 9.375000E-01 -5.447733E-01
1.250000E-01 1.000000E+00 -5.554461E-01
6.250000E-02 1.000000E+00 -5.896584E-01
0.000000E+00 1.000000E+00 -6.012105E-01
0.000000E+00 9.375000E-01 -5.896584E-01
3.750000E-02 9.125000E-01 -5.746273E-01
8.125000E-02 9.187500E-01 -5.628821E-01
8.750000E-02 9.625000E-01 -5.746273E-01
4.375000E-02 9.562500E-01 -5.899243E-01
1.875000E-01 8.750000E-01 -4.618365E-01
2.500000E-01 8.750000E-01 -3.927597E-01
2.500000E-01 9.375000E-01 -4.169514E-01
2.500000E-01 1.000000E+00 -4.251200E-01
1.875000E-01 1.000000E+00 -4.998882E-01
1.625000E-01 9.125000E-01 -5.048595E-01
2.062500E-01 9.187500E-01 -4.638259E-01
2.125000E-01 9.625000E-01 -4.688681E-01
1.687500E-01 9.562500E-01 -5.137934E-01
0.000000E+00 7.500000E-01 -4.251200E-01
6.250000E-02 7.500000E-01 -4.169514E-01
1.250000E-01 7.500000E-01 -3.927597E-01
1.250000E-01 8.125000E-01 -4.618365E-01
0.000000E+00 8.125000E-01 -4.998882E-01
3.750000E-02 7.875000E-01 -4.688681E-01
8.125000E-02 7.937500E-01 -4.638259E-01
8.750000E-02 8.375000E-01 -5.048595E-01
4.375000E-02 8.312500E-01 -5.137934E-01
1.875000E-01 7.500000E-01 -3.534744E-01
2.500000E-01 7.500000E-01 -3.006052E-01
2.500000E-01 8.125000E-01 -3.534744E-01
1.625000E-01 7.875000E-01 -4.119409E-01
2.062500E-01 7.937500E-01 -3.822017E-01
2.125000E-01 8.375000E-01 -4.119409E-01
1.687500E-01 8.312500E-01 -4.474874E-01
3.125000E-01 8.750000E-01 -3.085893E-01
3.750000E-01 8.750000E-01 -2.125600E-01
3.750000E-01 9.375000E-01 -2.256525E-01
3.750000E-01 1.000000E+00 -2.300733E-01
3.125000E-01 1.000000E+00 -3.340146E-01
2.875000E-01 9.125000E-01 -3.582314E-01
3.312500E-01 9.187500E-01 -2.941564E-01
3.375000E-01 9.625000E-01 -2.917280E-01
2.937500E-01 9.562500E-01 -3.594421E-01
4.375000E-01 8.750000E-01 -1.083622E-01
5.000000E-01 8.750000E-01 -3.401126E-17
5.000000E-01 9.375000E-01 -3.610616E-17
5.000000E-01 1.000000E+00 -3.681352E-17
4.375000E-01 1.000000E+00 -1.172903E-01
4.125000E-01 9.125000E-01 -1.570658E-01
4.562500E-01 9.187500E-01 -7.970429E-02
4.625000E-01 9.625000E-01 -7.017490E-02
4.187500E-01 9.562500E-01 -1.503690E-01
3.125000E-01 7.500000E-01 -2.361840E-01
3.750000E-01 7.500000E-01 -1.626864E-01
3.750000E-01 8.125000E-01 -1.912990E-01
2.875000E-01 7.875000E-01 -2.922995E-01
3.312500E-01 7.937500E-01 -2.423907E-01
3.375000E-01 8.375000E-01 -2.563081E-01
2.937500E-01 8.312500E-01 -3.130554E-01
4.375000E-01 7.500000E-01 -8.293680E-02
5.000000E-01 7.500000E-01 -2.603109E-17
5.000000E-01 8.125000E-01 -3.060933E-17
4.125000E-01 7.875000E-01 -1.281581E-01
4.562500E-01 7.937500E-01 -6.567790E-02
4.625000E-01 8.375000E-01 -6.165468E-02
4.187500E-01 8.312500E-01 -1.309636E-01
0.000000E+00 6.250000E-01 -2.300733E-01
6.250000E-02 6.250000E-01 -2.256525E-01
1.250000E-01 6.250000E-01 -2.125600E-01
1.250000E-01 6.875000E-01 -3.085893E-01
0.000000E+00 6.875000E-01 -3.340146E-01
3.750000E-02 6.625000E-01 -2.917280E-01
8.125000E-02 6.687500E-01 -2.941564E-01
8.750000E-02 7.125000E-01 -3.582314E-01
4.375000E-02 7.062500E-01 -3.594421E-01
1.875000E-01 6.250000E-01 -1.912990E-01
2.500000E-01 6.250000E-01 -1.626864E-01
2.500000E-01 6.875000E-01 -2.361840E-01
1.625000E-01 6.625000E-01 -2.563081E-01
2.062500E-01 6.687500E-01 -2.423907E-01
2.125000E-01 7.125000E-01 -2.922995E-01
1.687500E-01 7.062500E-01 -3.130554E-01
0.000000E+00 5.000000E-01 3.681352E-17
6.250000E-02 5.000000E-01 3.610616E-17
1.250000E-01 5.000000E-01 3.401126E-17
1.250000E-01 5.625000E-01 -1.083622E-01
0.000000E+00 5.625000E-01 -1.172903E-01
3.750000E-02 5.375000E-01 -7.017490E-02
8.125000E-02 5.437500E-01 -7.970429E-02
8.750000E-02 5.875000E-01 -1.570658E-01
4.375000E-02 5.812500E-01 -1.503690E-01
1.875000E-01 5.000000E-01 3.060933E-17
2.500000E-01 5.000000E-01 2.603109E-17
2.500000E-01 5.625000E-01 -8.293680E-02
1.625000E-01 5.375000E-01 -6.165468E-02
2.062500E-01 5.437500E-01 -6.567790E-02
2.125000E-01 5.875000E-01 -1.281581E-01
1.687500E-01 5.812500E-01 -1.309636E-01
3.125000E-01 6.250000E-01 -1.278219E-01
3.750000E-01 6.250000E-01 -8.804524E-02
3.750000E-01 6.875000E-01 -1.278219E-01
2.875000E-01 6.625000E-01 -1.818676E-01
3.312500E-01 6.687500E-01 -1.537231E-01
3.375000E-01 7.125000E-01 -1.818676E-01
2.937500E-01 7.062500E-01 -2.190088E-01
4.375000E-01 6.250000E-01 -4.488507E-02
5.000000E-01 6.250000E-01 -1.408793E-17
5.000000E-01 6.875000E-01 -2.045250E-17
4.125000E-01 6.625000E-01 -7.973949E-02
4.562500E-01 6.687500E-01 -4.165264E-02
4.625000E-01 7.125000E-01 -4.374810E-02
4.187500E-01 7.062500E-01 -9.162014E-02
3.125000E-01 5.000000E-01 2.045250E-17
3.750000E-01 5.000000E-01 1.408793E-17
3.750000E-01 5.625000E-01 -4.488507E-02
2.875000E-01 5.375000E-01 -4.374810E-02
3.312500E-01 5.437500E-01 -4.165264E-02
3.375000E-01 5.875000E-01 -7.973949E-02
2.937500E-01 5.812500E-01 -9.162014E-02
4.375000E-01 5.000000E-01 7.181962E-18
5.000000E-01 5.000000E-01 2.254178E-33
5.000000E-01 5.625000E-01 -7.181962E-18
4.125000E-01 5.375000E-01 -1.918126E-02
4.562500E-01 5.437500E-01 -1.128615E-02
4.625000E-01 5.875000E-01 -1.918126E-02
4.187500E-01 5.812500E-01 -3.832837E-02
5.625000E-01 8.750000E-01 1.083622E-01
6.250000E-01 8.750000E-01 2.125600E-01
6.250000E-01 9.375000E-01 2.256525E-01
6.250000E-01 1.000000E+00 2.300733E-01
5.625000E-01 1.000000E+00 1.172903E-01
5.375000E-01 9.125000E-01 6.801163E-02
5.812500E-01 9.187500E-01 1.468821E-01
5.875000E-01 9.625000E-01 1.620617E-01
5.437500E-01 9.562500E-01 8.159642E-02
6.875000E-01 8.750000E-01 3.085893E-01
7.500000E-01 8.750000E-01 3.927597E-01
7.500000E-01 9.375000E-01 4.169514E-01
7.500000E-01 1.000000E+00 4.251200E-01
6.875000E-01 1.000000E+00 3.340146E-01
6.625000E-01 9.125000E-01 2.827349E-01
7.062500E-01 9.187500E-01 3.511070E-01
7.125000E-01 9.625000E-01 3.696258E-01
6.687500E-01 9.562500E-01 3.011395E-01
5.625000E-01 7.500000E-01 8.293680E-02
6.250000E-01 7.500000E-01 1.626864E-01
6.250000E-01 8.125000E-01 1.912990E-01
5.375000E-01 7.875000E-01 5.549420E-02
5.812500E-01 7.937500E-01 1.210337E-01
5.875000E-01 8.375000E-01 1.423851E-01
5.437500E-01 8.312500E-01 7.106624E-02
6.875000E-01 7.500000E-01 2.361840E-01
7.500000E-01 7.500000E-01 3.006052E-01
7.500000E-01 8.125000E-01 3.534744E-01
6.625000E-01 7.875000E-01 2.306980E-01
7.062500E-01 7.937500E-01 2.893191E-01
7.125000E-01 8.375000E-01 3.247481E-01
6.687500E-01 8.312500E-01 2.622769E-01
8.125000E-01 8.750000E-01 4.618365E-01
8.750000E-01 8.750000E-01 5.131652E-01
8.750000E-01 9.375000E-01 5.447733E-01
8.750000E-01 1.000000E+00 5.554461E-01
8.125000E-01 1.000000E+00 4.998882E-01
7.875000E-01 9.125000E-01 4.544144E-01
8.312500E-01 9.187500E-01 5.018791E-01
8.375000E-01 9.625000E-01 5.209178E-01
7.937500E-01 9.562500E-01 4.748369E-01
9.375000E-01 8.750000E-01 5.447733E-01
1.000000E+00 8.750000E-01 5.554461E-01
1.000000E+00 9.375000E-01 5.896584E-01
1.000000E+00 1.000000E+00 6.012105E-01
9.375000E-01 1.000000E+00 5.896584E-01
9.125000E-01 9.125000E-01 5.569133E-01
9.562500E-01 9.187500E-01 5.762446E-01
9.625000E-01 9.625000E-01 5.929047E-01
9.187500E-01 9.562500E-01 5.762446E-01
8.125000E-01 7.500000E-01 3.534744E-01
8.750000E-01 7.500000E-01 3.927597E-01
8.750000E-01 8.125000E-01 4.618365E-01
7.875000E-01 7.875000E-01 3.707801E-01
8.312500E-01 7.937500E-01 4.135582E-01
8.375000E-01 8.375000E-01 4.576711E-01
7.937500E-01 8.312500E-01 4.135582E-01
9.375000E-01 7.500000E-01 4.169514E-01
1.000000E+00 7.500000E-01 4.251200E-01
1.000000E+00 8.125000E-01 4.998882E-01
9.125000E-01 7.875000E-01 4.544144E-01
9.562500E-01 7.937500E-01 4.748369E-01
9.625000E-01 8.375000E-01 5.209178E-01
9.187500E-01 8.312500E-01 5.018791E-01
5.625000E-01 6.250000E-01 4.488507E-02
6.250000E-01 6.250000E-01 8.804524E-02
6.250000E-01 6.875000E-01 1.278219E-01
5.375000E-01 6.625000E-01 3.452828E-02
5.812500E-01 6.687500E-01 7.675908E-02
5.875000E-01 7.125000E-01 1.010317E-01
5.437500E-01 7.062500E-01 4.971687E-02
6.875000E-01 6.250000E-01 1.278219E-01
7.500000E-01 6.250000E-01 1.626864E-01
7.500000E-01 6.875000E-01 2.361840E-01
6.625000E-01 6.625000E-01 1.435394E-01
7.062500E-01 6.687500E-01 1.834849E-01
7.125000E-01 7.125000E-01 2.304303E-01
6.687500E-01 7.062500E-01 1.834849E-01
5.625000E-01 5.000000E-01 -7.181962E-18
6.250000E-01 5.000000E-01 -1.408793E-17
6.250000E-01 5.625000E-01 4.488507E-02
5.375000E-01 5.375000E-01 8.305747E-03
5.812500E-01 5.437500E-01 2.079855E-02
5.875000E-01 5.875000E-01 4.429714E-02
5.437500E-01 5.812500E-01 2.079855E-02
6.875000E-01 5.000000E-01 -2.045250E-17
7.500000E-01 5.000000E-01 -2.603109E-17
7.500000E-01 5.625000E-01 8.293680E-02
6.625000E-01 5.375000E-01 3.452828E-02
7.062500E-01 5.437500E-01 4.971687E-02
7.125000E-01 5.875000E-01 1.010317E-01
6.687500E-01 5.812500E-01 7.675908E-02
8.125000E-01 6.250000E-01 1.912990E-01
8.750000E-01 6.250000E-01 2.125600E-01
8.750000E-01 6.875000E-01 3.085893E-01
7.875000E-01 6.625000E-01 2.306980E-01
8.312500E-01 6.687500E-01 2.622769E-01
8.375000E-01 7.125000E-01 3.247481E-01
7.937500E-01 7.062500E-01 2.893191E-01
9.375000E-01 6.250000E-01 2.256525E-01
1.000000E+00 6.250000E-01 2.300733E-01
1.000000E+00 6.875000E-01 3.340146E-01
9.125000E-01 6.625000E-01 2.827349E-01
9.562500E-01 6.687500E-01 3.011395E-01
9.625000E-01 7.125000E-01 3.696258E-01
9.187500E-01 7.062500E-01 3.511070E-01
8.125000E-01 5.000000E-01 -3.060933E-17
8.750000E-01 5.000000E-01 -3.401126E-17
8.750000E-01 5.625000E-01 1.083622E-01
7.875000E-01 5.375000E-01 5.549420E-02
8.312500E-01 5.437500E-01 7.106624E-02
8.375000E-01 5.875000E-01 1.423851E-01
7.937500E-01 5.812500E-01 1.210337E-01
9.375000E-01 5.000000E-01 -3.610616E-17
1.000000E+00 5.000000E-01 -3.681352E-17
1.000000E+00 5.625000E-01 1.172903E-01
9.125000E-01 5.375000E-01 6.801163E-02
9.562500E-01 5.437500E-01 8.159642E-02
9.625000E-01 5.875000E-01 1.620617E-01
9.187500E-01 5.812500E-01 1.468821E-01
0.000000E+00 3.750000E-01 2.300733E-01
6.250000E-02 3.750000E-01 2.256525E-01
[...]
CELL_DATA 896
SCALARS sol float 1
LOOKUP_TABLE default
-5.582822E-01
-5.607609E-01
-5.732439E-01
-5.380043E-01
-5.758113E-01
-5.402736E-01
-5.847367E-01
-5.230426E-01
-5.211421E-01
-5.758113E-01
-5.402736E-01
-5.209327E-01
-5.935977E-01
-4.941833E-01
-4.941596E-01
-5.847367E-01
-5.607609E-01
-5.209327E-01
-4.932871E-01
-5.935977E-01
-4.821625E-01
-4.646255E-01
-4.768406E-01
-5.732439E-01
-5.582822E-01
-4.932871E-01
-5.211421E-01
-4.741630E-01
-4.498818E-01
-4.369799E-01
-4.394740E-01
-5.380043E-01
-4.768406E-01
-4.741630E-01
-4.941596E-01
-4.404216E-01
-4.245123E-01
-4.005045E-01
-4.221790E-01
-5.230426E-01
-4.394740E-01
-4.404216E-01
-4.821625E-01
-4.138767E-01
-3.893142E-01
-3.728589E-01
-3.782083E-01
-3.860583E-01
-4.941833E-01
-4.245123E-01
-4.221790E-01
-4.138767E-01
-4.498818E-01
-3.825390E-01
-3.531935E-01
-3.283949E-01
-3.372766E-01
-3.530965E-01
-4.646255E-01
-3.893142E-01
-3.860583E-01
-3.825390E-01
-4.369799E-01
-3.454271E-01
-3.203257E-01
-3.381348E-01
-3.151088E-01
-2.852720E-01
-3.196098E-01
-3.531935E-01
-3.782083E-01
-3.530965E-01
-3.454271E-01
-4.005045E-01
-3.154597E-01
-2.717686E-01
-2.926509E-01
-2.705123E-01
-2.491513E-01
-2.825819E-01
-3.203257E-01
-3.381348E-01
-3.372766E-01
-3.196098E-01
-3.154597E-01
-3.728589E-01
-2.763629E-01
-2.441230E-01
-2.591525E-01
-2.705847E-01
-2.020316E-01
-2.569581E-01
-2.717686E-01
-2.926509E-01
-3.151088E-01
-2.825819E-01
-2.763629E-01
-3.283949E-01
-2.519327E-01
-1.984261E-01
-2.200557E-01
-2.299992E-01
-1.659109E-01
-1.776958E-01
-2.137537E-01
-2.441230E-01
-2.591525E-01
-2.705847E-01
-2.705123E-01
-2.569581E-01
-2.519327E-01
-2.852720E-01
-2.123535E-01
-1.593293E-01
-1.782742E-01
-1.987920E-01
-1.126114E-01
-1.290464E-01
-1.935794E-01
-1.984261E-01
-2.200557E-01
-2.299992E-01
-2.491513E-01
-2.137537E-01
-2.123535E-01
-1.848665E-01
-1.506286E-01
-1.150441E-01
-1.501402E-01
-1.607145E-01
-1.000827E-01
-6.248842E-02
-1.574586E-01
-1.593293E-01
-1.776958E-01
-1.782742E-01
-1.987920E-01
-2.020316E-01
-1.935794E-01
-1.848665E-01
-1.544709E-01
-1.003268E-01
-6.268881E-02
-1.082665E-01
-1.245938E-01
-4.995973E-02
-2.339163E-02
-1.273761E-01
-1.150441E-01
-1.506286E-01
-1.290464E-01
-1.501402E-01
-1.607145E-01
-1.659109E-01
-1.574586E-01
-1.544709E-01
-1.231967E-01
-8.609872E-02
-5.667228E-02
-2.656810E-02
-9.225760E-02
-1.124144E-01
2.719881E-02
-9.972717E-02
-6.268881E-02
-1.003268E-01
-1.000827E-01
-1.082665E-01
-1.245938E-01
-1.126114E-01
-1.273761E-01
-1.231967E-01
-9.853553E-02
-4.244419E-02
-2.055156E-02
2.267054E-02
-4.953823E-02
-7.276835E-02
6.629559E-02
4.986935E-02
-7.100409E-02
-2.656810E-02
-5.667228E-02
-8.609872E-02
-4.995973E-02
-9.225760E-02
-1.124144E-01
-6.248842E-02
-9.972717E-02
-9.853553E-02
-7.088993E-02
-2.189263E-02
2.368875E-02
5.879126E-02
-4.222830E-02
-5.900696E-02
1.203161E-01
9.883005E-02
-5.542574E-02
2.267054E-02
-2.055156E-02
-4.244419E-02
-2.339163E-02
-4.953823E-02
-7.276835E-02
-7.100409E-02
-7.088993E-02
-5.708623E-02
1.849807E-02
5.980946E-02
4.218681E-02
1.077520E-01
-1.458270E-02
-2.846691E-02
1.301801E-01
1.698084E-01
-2.884591E-02
5.879126E-02
4.986935E-02
2.368875E-02
-2.189263E-02
2.719881E-02
-4.222830E-02
-5.900696E-02
-5.542574E-02
-5.708623E-02
-3.413157E-02
4.614367E-02
1.072712E-01
8.253139E-02
1.559348E-01
1.657229E-02
-1.388421E-02
1.781988E-01
2.059292E-01
-2.135544E-02
1.077520E-01
5.980946E-02
9.883005E-02
4.218681E-02
1.849807E-02
6.629559E-02
-1.458270E-02
-2.846691E-02
-2.884591E-02
-3.413157E-02
-2.293193E-02
4.421789E-02
8.648825E-02
1.114950E-01
1.544358E-01
1.950315E-01
2.808172E-02
1.150943E-02
2.522884E-01
-6.393754E-03
1.559348E-01
1.072712E-01
1.301801E-01
8.253139E-02
4.614367E-02
1.203161E-01
1.657229E-02
-1.388421E-02
-2.135544E-02
-2.293193E-02
-1.015581E-02
7.789512E-02
1.222190E-01
1.515726E-01
1.820814E-01
2.403158E-01
5.366808E-02
2.647112E-02
2.884092E-01
2.698423E-01
6.932851E-03
1.950315E-01
1.544358E-01
1.114950E-01
1.781988E-01
8.648825E-02
4.421789E-02
1.698084E-01
2.808172E-02
1.150943E-02
-6.393754E-03
-1.015581E-02
-3.762051E-03
7.583589E-02
1.155516E-01
1.583397E-01
2.220453E-01
2.679614E-01
5.205748E-02
2.189454E-02
3.349267E-01
3.116605E-01
9.701433E-03
2.403158E-01
1.820814E-01
1.515726E-01
2.059292E-01
1.222190E-01
7.789512E-02
5.366808E-02
2.647112E-02
6.932851E-03
-3.762051E-03
2.768582E-03
1.018709E-01
1.305133E-01
1.948944E-01
2.611421E-01
2.280913E-01
3.141437E-01
6.989646E-02
3.666026E-02
3.406241E-01
3.762535E-01
1.663428E-02
2.679614E-01
2.698423E-01
2.220453E-01
1.583397E-01
2.522884E-01
1.155516E-01
7.583589E-02
5.205748E-02
2.189454E-02
9.701433E-03
2.768582E-03
2.768582E-03
9.754206E-02
1.579977E-01
2.098561E-01
2.985381E-01
2.607647E-01
3.508187E-01
5.907582E-02
2.863142E-02
3.792281E-01
4.038991E-01
9.701433E-03
3.141437E-01
2.611421E-01
3.116605E-01
2.280913E-01
1.948944E-01
2.884092E-01
1.305133E-01
1.018709E-01
6.989646E-02
3.666026E-02
1.663428E-02
2.768582E-03
-3.762051E-03
1.198022E-01
1.941184E-01
1.516154E-01
2.520670E-01
2.921147E-01
3.420323E-01
3.869394E-01
5.907582E-02
3.666026E-02
4.389694E-01
6.932851E-03
3.508187E-01
2.985381E-01
3.406241E-01
2.607647E-01
2.098561E-01
3.349267E-01
1.579977E-01
9.754206E-02
5.907582E-02
2.863142E-02
9.701433E-03
-3.762051E-03
-1.015581E-02
1.198022E-01
2.166998E-01
1.701698E-01
2.753695E-01
3.225138E-01
3.569940E-01
4.213752E-01
6.989646E-02
2.189454E-02
4.666150E-01
4.487342E-01
-6.393754E-03
3.869394E-01
3.420323E-01
2.921147E-01
3.792281E-01
2.520670E-01
1.941184E-01
3.762535E-01
1.516154E-01
1.198022E-01
5.907582E-02
3.666026E-02
6.932851E-03
-1.015581E-02
-2.293193E-02
9.754206E-02
1.516154E-01
1.991334E-01
2.557399E-01
3.144662E-01
3.865974E-01
4.363369E-01
5.205748E-02
2.647112E-02
4.985476E-01
4.770434E-01
-2.135544E-02
4.213752E-01
3.569940E-01
3.225138E-01
4.038991E-01
2.753695E-01
2.166998E-01
1.701698E-01
1.198022E-01
6.989646E-02
2.189454E-02
-6.393754E-03
-2.293193E-02
-3.413157E-02
1.018709E-01
1.579977E-01
2.166998E-01
2.557399E-01
3.416199E-01
4.227181E-01
3.792709E-01
4.727100E-01
5.366808E-02
1.150943E-02
4.992113E-01
5.254174E-01
-2.884591E-02
4.363369E-01
4.487342E-01
3.865974E-01
3.144662E-01
4.389694E-01
2.557399E-01
1.991334E-01
1.516154E-01
9.754206E-02
5.205748E-02
2.647112E-02
-2.135544E-02
-3.413157E-02
-5.708623E-02
7.583589E-02
1.305133E-01
1.941184E-01
2.753695E-01
3.416199E-01
4.443553E-01
3.992989E-01
4.922936E-01
2.808172E-02
-1.388421E-02
5.225234E-01
5.403791E-01
-5.542574E-02
4.727100E-01
4.227181E-01
4.770434E-01
3.792709E-01
3.416199E-01
4.666150E-01
2.557399E-01
2.166998E-01
1.579977E-01
1.018709E-01
5.366808E-02
1.150943E-02
-2.884591E-02
-5.708623E-02
-7.088993E-02
7.789512E-02
1.155516E-01
2.098561E-01
3.144662E-01
2.520670E-01
3.792709E-01
4.282625E-01
4.775576E-01
5.199392E-01
1.657229E-02
-2.846691E-02
5.588213E-01
-7.100409E-02
4.922936E-01
4.443553E-01
4.992113E-01
3.992989E-01
3.416199E-01
4.985476E-01
2.753695E-01
1.941184E-01
1.305133E-01
7.583589E-02
2.808172E-02
-1.388421E-02
-5.542574E-02
-7.088993E-02
-9.853553E-02
4.421789E-02
1.222190E-01
1.948944E-01
3.225138E-01
2.607647E-01
3.865974E-01
4.443553E-01
4.775576E-01
5.382840E-01
-1.458270E-02
-5.900696E-02
5.737830E-01
5.593104E-01
-9.972717E-02
5.199392E-01
4.775576E-01
4.282625E-01
5.225234E-01
3.792709E-01
3.144662E-01
5.254174E-01
2.520670E-01
2.098561E-01
1.155516E-01
7.789512E-02
1.657229E-02
-2.846691E-02
-7.100409E-02
-9.853553E-02
-1.231967E-01
4.614367E-02
1.583397E-01
8.648825E-02
2.280913E-01
2.921147E-01
3.569940E-01
4.227181E-01
4.922936E-01
5.382840E-01
-4.222830E-02
-7.276835E-02
5.862693E-01
5.698009E-01
-1.273761E-01
5.382840E-01
4.775576E-01
4.443553E-01
5.403791E-01
3.865974E-01
3.225138E-01
2.607647E-01
1.948944E-01
1.222190E-01
4.421789E-02
-1.458270E-02
-5.900696E-02
-9.972717E-02
-1.231967E-01
-1.544709E-01
1.849807E-02
1.515726E-01
8.253139E-02
2.220453E-01
2.985381E-01
3.420323E-01
4.363369E-01
5.199392E-01
4.727100E-01
5.593104E-01
-4.953823E-02
-1.124144E-01
5.817980E-01
5.945912E-01
-1.574586E-01
5.382840E-01
5.593104E-01
4.922936E-01
4.227181E-01
5.588213E-01
3.569940E-01
2.921147E-01
2.280913E-01
1.583397E-01
8.648825E-02
4.614367E-02
-4.222830E-02
-7.276835E-02
-1.273761E-01
-1.544709E-01
-1.848665E-01
4.218681E-02
-2.189263E-02
1.114950E-01
1.820814E-01
2.611421E-01
3.508187E-01
4.213752E-01
5.225234E-01
4.770434E-01
5.588213E-01
-9.225760E-02
-1.245938E-01
5.862693E-01
5.945912E-01
-1.935794E-01
5.593104E-01
5.199392E-01
5.698009E-01
4.727100E-01
4.363369E-01
5.737830E-01
3.420323E-01
2.985381E-01
2.220453E-01
1.515726E-01
8.253139E-02
1.849807E-02
-4.953823E-02
-1.124144E-01
-1.574586E-01
-1.848665E-01
-2.123535E-01
2.368875E-02
-4.244419E-02
1.072712E-01
1.544358E-01
2.679614E-01
3.869394E-01
3.141437E-01
4.487342E-01
4.992113E-01
5.403791E-01
5.737830E-01
-1.082665E-01
-1.607145E-01
-2.137537E-01
5.588213E-01
5.225234E-01
5.817980E-01
4.770434E-01
4.213752E-01
5.862693E-01
3.508187E-01
2.611421E-01
1.820814E-01
1.114950E-01
4.218681E-02
-2.189263E-02
-9.225760E-02
-1.245938E-01
-1.935794E-01
-2.123535E-01
-2.519327E-01
5.980946E-02
-2.055156E-02
-8.609872E-02
1.559348E-01
2.403158E-01
3.792281E-01
3.116605E-01
4.389694E-01
4.985476E-01
5.254174E-01
-1.501402E-01
-1.987920E-01
-2.569581E-01
5.737830E-01
5.403791E-01
4.992113E-01
5.862693E-01
4.487342E-01
3.869394E-01
5.945912E-01
3.141437E-01
2.679614E-01
1.544358E-01
1.072712E-01
2.368875E-02
-4.244419E-02
-1.082665E-01
-1.607145E-01
-2.137537E-01
-2.519327E-01
-2.763629E-01
5.879126E-02
-5.667228E-02
-1.003268E-01
1.950315E-01
1.077520E-01
2.698423E-01
3.406241E-01
4.038991E-01
4.666150E-01
-1.782742E-01
-2.299992E-01
-2.825819E-01
5.254174E-01
4.985476E-01
5.945912E-01
4.389694E-01
3.792281E-01
3.116605E-01
2.403158E-01
1.559348E-01
5.980946E-02
-2.055156E-02
-8.609872E-02
-1.501402E-01
-1.987920E-01
-2.569581E-01
-2.763629E-01
-3.154597E-01
2.267054E-02
-6.268881E-02
-1.506286E-01
1.781988E-01
9.883005E-02
2.522884E-01
3.349267E-01
3.762535E-01
-2.200557E-01
-2.705847E-01
-3.196098E-01
4.666150E-01
4.038991E-01
3.406241E-01
2.698423E-01
1.950315E-01
1.077520E-01
5.879126E-02
-5.667228E-02
-1.003268E-01
-1.782742E-01
-2.299992E-01
-2.825819E-01
-3.154597E-01
-3.454271E-01
4.986935E-02
-2.656810E-02
-1.150441E-01
-1.593293E-01
1.301801E-01
2.059292E-01
2.884092E-01
-2.591525E-01
-2.926509E-01
-3.530965E-01
3.762535E-01
3.349267E-01
2.522884E-01
1.781988E-01
9.883005E-02
2.267054E-02
-6.268881E-02
-1.506286E-01
-2.200557E-01
-2.705847E-01
-3.196098E-01
-3.454271E-01
-3.825390E-01
2.719881E-02
-4.995973E-02
-1.290464E-01
-1.984261E-01
1.203161E-01
1.698084E-01
-2.717686E-01
-3.381348E-01
-3.860583E-01
2.884092E-01
2.059292E-01
1.301801E-01
4.986935E-02
-2.656810E-02
-1.150441E-01
-1.593293E-01
-2.591525E-01
-2.926509E-01
-3.530965E-01
-3.825390E-01
-4.138767E-01
6.629559E-02
-2.339163E-02
-1.000827E-01
-1.776958E-01
-2.441230E-01
-3.203257E-01
-3.531935E-01
-4.221790E-01
1.698084E-01
1.203161E-01
2.719881E-02
-4.995973E-02
-1.290464E-01
-1.984261E-01
-2.717686E-01
-3.381348E-01
-3.860583E-01
-4.138767E-01
-4.404216E-01
-6.248842E-02
-1.126114E-01
-2.020316E-01
-2.705123E-01
-3.372766E-01
-3.893142E-01
-4.394740E-01
6.629559E-02
-2.339163E-02
-1.000827E-01
-1.776958E-01
-2.441230E-01
-3.203257E-01
-3.531935E-01
-4.221790E-01
-4.404216E-01
-4.741630E-01
-1.659109E-01
-2.491513E-01
-3.151088E-01
-3.782083E-01
-4.245123E-01
-4.768406E-01
-6.248842E-02
-1.126114E-01
-2.020316E-01
-2.705123E-01
-3.372766E-01
-3.893142E-01
-4.394740E-01
-4.741630E-01
-4.932871E-01
-2.852720E-01
-3.283949E-01
-4.005045E-01
-4.498818E-01
-4.941596E-01
-1.659109E-01
-2.491513E-01
-3.151088E-01
-3.782083E-01
-4.245123E-01
-4.768406E-01
-4.932871E-01
-5.209327E-01
-3.728589E-01
-4.369799E-01
-4.821625E-01
-5.211421E-01
-2.852720E-01
-3.283949E-01
-4.005045E-01
-4.498818E-01
-4.941596E-01
-5.209327E-01
-5.402736E-01
-4.646255E-01
-4.941833E-01
-5.380043E-01
-3.728589E-01
-4.369799E-01
-4.821625E-01
-5.211421E-01
-5.402736E-01
-5.607609E-01
-5.230426E-01
-5.582822E-01
-4.646255E-01
-4.941833E-01
-5.380043E-01
-5.607609E-01
-5.758113E-01
-5.732439E-01
-5.230426E-01
-5.582822E-01
-5.758113E-01
-5.847367E-01
-5.732439E-01
-5.847367E-01
-5.935977E-01
-5.935977E-01
