# vtk DataFile Version 2.0
Grille
ASCII
DATASET POLYDATA
POINTS 481 float
0.000000E+00 8.750000E-01 -5.640593E-01
6.250000E-02 8.750000E-01 -5.532210E-01
1.250000E-01 8.750000E-01 -5.211228E-01
1.250000E-01 9.375000E-01 -5.532210E-01
1.250000E-01 1.000000E+00 -5.640593E-01
6.250000E-02 1.000000E+00 -5.988021E-01
0.000000E+00 1.000000E+00 -6.105333E-01
0.000000E+00 9.375000E-01 -5.988021E-01
3.750000E-02 9.125000E-01 -5.835380E-01
8.125000E-02 9.187500E-01 -5.716106E-01
8.750000E-02 9.625000E-01 -5.835380E-01
4.375000E-02 9.562500E-01 -5.990722E-01
1.875000E-01 8.750000E-01 -4.689981E-01
2.500000E-01 8.750000E-01 -3.988501E-01
2.500000E-01 9.375000E-01 -4.234170E-01
2.500000E-01 1.000000E+00 -4.317123E-01
1.875000E-01 1.000000E+00 -5.076399E-01
1.625000E-01 9.125000E-01 -5.126883E-01
2.062500E-01 9.187500E-01 -4.710184E-01
2.125000E-01 9.625000E-01 -4.761388E-01
1.687500E-01 9.562500E-01 -5.217607E-01
0.000000E+00 7.500000E-01 -4.317123E-01
6.250000E-02 7.500000E-01 -4.234170E-01
1.250000E-01 7.500000E-01 -3.988501E-01
1.250000E-01 8.125000E-01 -4.689981E-01
0.000000E+00 8.125000E-01 -5.076399E-01
3.750000E-02 7.875000E-01 -4.761388E-01
8.125000E-02 7.937500E-01 -4.710184E-01
8.750000E-02 8.375000E-01 -5.126883E-01
4.375000E-02 8.312500E-01 -5.217607E-01
1.875000E-01 7.500000E-01 -3.589556E-01
2.500000E-01 7.500000E-01 -3.052667E-01
2.500000E-01 8.125000E-01 -3.589556E-01
1.625000E-01 7.875000E-01 -4.183288E-01
2.062500E-01 7.937500E-01 -3.881284E-01
2.125000E-01 8.375000E-01 -4.183288E-01
1.687500E-01 8.312500E-01 -4.544264E-01
3.125000E-01 8.750000E-01 -3.133745E-01
3.750000E-01 8.750000E-01 -2.158561E-01
3.750000E-01 9.375000E-01 -2.291516E-01
3.750000E-01 1.000000E+00 -2.336410E-01
3.125000E-01 1.000000E+00 -3.391941E-01
2.875000E-01 9.125000E-01 -3.637864E-01
3.312500E-01 9.187500E-01 -2.987179E-01
3.375000E-01 9.625000E-01 -2.962517E-01
2.937500E-01 9.562500E-01 -3.650159E-01
4.375000E-01 8.750000E-01 -1.100425E-01
5.000000E-01 8.750000E-01 -3.453867E-17
5.000000E-01 9.375000E-01 -3.666605E-17
5.000000E-01 1.000000E+00 -3.738438E-17
4.375000E-01 1.000000E+00 -1.191091E-01
4.125000E-01 9.125000E-01 -1.595014E-01
4.562500E-01 9.187500E-01 -8.094025E-02
4.625000E-01 9.625000E-01 -7.126309E-02
4.187500E-01 9.562500E-01 -1.527007E-01
3.125000E-01 7.500000E-01 -2.398465E-01
3.750000E-01 7.500000E-01 -1.652091E-01
3.750000E-01 8.125000E-01 -1.942654E-01
2.875000E-01 7.875000E-01 -2.968321E-01
3.312500E-01 7.937500E-01 -2.461494E-01
3.375000E-01 8.375000E-01 -2.602826E-01
2.937500E-01 8.312500E-01 -3.179099E-01
4.375000E-01 7.500000E-01 -8.422288E-02
5.000000E-01 7.500000E-01 -2.643475E-17
5.000000E-01 8.125000E-01 -3.108398E-17
4.125000E-01 7.875000E-01 -1.301454E-01
4.562500E-01 7.937500E-01 -6.669635E-02
4.625000E-01 8.375000E-01 -6.261075E-02
4.187500E-01 8.312500E-01 -1.329944E-01
0.000000E+00 6.250000E-01 -2.336410E-01
6.250000E-02 6.250000E-01 -2.291516E-01
1.250000E-01 6.250000E-01 -2.158561E-01
1.250000E-01 6.875000E-01 -3.133745E-01
0.000000E+00 6.875000E-01 -3.391941E-01
3.750000E-02 6.625000E-01 -2.962517E-01
8.125000E-02 6.687500E-01 -2.987179E-01
8.750000E-02 7.125000E-01 -3.637864E-01
4.375000E-02 7.062500E-01 -3.650159E-01
1.875000E-01 6.250000E-01 -1.942654E-01
2.500000E-01 6.250000E-01 -1.652091E-01
2.500000E-01 6.875000E-01 -2.398465E-01
1.625000E-01 6.625000E-01 -2.602826E-01
2.062500E-01 6.687500E-01 -2.461494E-01
2.125000E-01 7.125000E-01 -2.968321E-01
1.687500E-01 7.062500E-01 -3.179099E-01
0.000000E+00 5.000000E-01 3.738438E-17
6.250000E-02 5.000000E-01 3.666605E-17
1.250000E-01 5.000000E-01 3.453867E-17
1.250000E-01 5.625000E-01 -1.100425E-01
0.000000E+00 5.625000E-01 -1.191091E-01
3.750000E-02 5.375000E-01 -7.126309E-02
8.125000E-02 5.437500E-01 -8.094025E-02
8.750000E-02 5.875000E-01 -1.595014E-01
4.375000E-02 5.812500E-01 -1.527007E-01
1.875000E-01 5.000000E-01 3.108398E-17
2.500000E-01 5.000000E-01 2.643475E-17
2.500000E-01 5.625000E-01 -8.422288E-02
1.625000E-01 5.375000E-01 -6.261075E-02
2.062500E-01 5.437500E-01 -6.669635E-02
2.125000E-01 5.875000E-01 -1.301454E-01
1.687500E-01 5.812500E-01 -1.329944E-01
3.125000E-01 6.250000E-01 -1.298040E-01
3.750000E-01 6.250000E-01 -8.941054E-02
3.750000E-01 6.875000E-01 -1.298040E-01
2.875000E-01 6.625000E-01 -1.846878E-01
3.312500E-01 6.687500E-01 -1.561069E-01
3.375000E-01 7.125000E-01 -1.846878E-01
2.937500E-01 7.062500E-01 -2.224049E-01
4.375000E-01 6.250000E-01 -4.558110E-02
5.000000E-01 6.250000E-01 -1.430638E-17
5.000000E-01 6.875000E-01 -2.076965E-17
4.125000E-01 6.625000E-01 -8.097599E-02
4.562500E-01 6.687500E-01 -4.229854E-02
4.625000E-01 7.125000E-01 -4.442649E-02
4.187500E-01 7.062500E-01 -9.304088E-02
3.125000E-01 5.000000E-01 2.076965E-17
3.750000E-01 5.000000E-01 1.430638E-17
3.750000E-01 5.625000E-01 -4.558110E-02
2.875000E-01 5.375000E-01 -4.442649E-02
3.312500E-01 5.437500E-01 -4.229854E-02
3.375000E-01 5.875000E-01 -8.097599E-02
2.937500E-01 5.812500E-01 -9.304088E-02
4.375000E-01 5.000000E-01 7.293332E-18
5.000000E-01 5.000000E-01 2.289133E-33
5.000000E-01 5.625000E-01 -7.293332E-18
4.125000E-01 5.375000E-01 -1.947870E-02
4.562500E-01 5.437500E-01 -1.146116E-02
4.625000E-01 5.875000E-01 -1.947870E-02
4.187500E-01 5.812500E-01 -3.892272E-02
5.625000E-01 8.750000E-01 1.100425E-01
6.250000E-01 8.750000E-01 2.158561E-01
6.250000E-01 9.375000E-01 2.291516E-01
6.250000E-01 1.000000E+00 2.336410E-01
5.625000E-01 1.000000E+00 1.191091E-01
5.375000E-01 9.125000E-01 6.906627E-02
5.812500E-01 9.187500E-01 1.491598E-01
5.875000E-01 9.625000E-01 1.645747E-01
5.437500E-01 9.562500E-01 8.286172E-02
6.875000E-01 8.750000E-01 3.133745E-01
7.500000E-01 8.750000E-01 3.988501E-01
7.500000E-01 9.375000E-01 4.234170E-01
7.500000E-01 1.000000E+00 4.317123E-01
6.875000E-01 1.000000E+00 3.391941E-01
6.625000E-01 9.125000E-01 2.871192E-01
7.062500E-01 9.187500E-01 3.565516E-01
7.125000E-01 9.625000E-01 3.753575E-01
6.687500E-01 9.562500E-01 3.058092E-01
5.625000E-01 7.500000E-01 8.422288E-02
6.250000E-01 7.500000E-01 1.652091E-01
6.250000E-01 8.125000E-01 1.942654E-01
5.375000E-01 7.875000E-01 5.635474E-02
5.812500E-01 7.937500E-01 1.229106E-01
5.875000E-01 8.375000E-01 1.445930E-01
5.437500E-01 8.312500E-01 7.216825E-02
6.875000E-01 7.500000E-01 2.398465E-01
7.500000E-01 7.500000E-01 3.052667E-01
7.500000E-01 8.125000E-01 3.589556E-01
6.625000E-01 7.875000E-01 2.342754E-01
7.062500E-01 7.937500E-01 2.938055E-01
7.125000E-01 8.375000E-01 3.297839E-01
6.687500E-01 8.312500E-01 2.663439E-01
8.125000E-01 8.750000E-01 4.689981E-01
8.750000E-01 8.750000E-01 5.211228E-01
8.750000E-01 9.375000E-01 5.532210E-01
8.750000E-01 1.000000E+00 5.640593E-01
8.125000E-01 1.000000E+00 5.076399E-01
7.875000E-01 9.125000E-01 4.614609E-01
8.312500E-01 9.187500E-01 5.096616E-01
8.375000E-01 9.625000E-01 5.289955E-01
7.937500E-01 9.562500E-01 4.822001E-01
9.375000E-01 8.750000E-01 5.532210E-01
1.000000E+00 8.750000E-01 5.640593E-01
1.000000E+00 9.375000E-01 5.988021E-01
1.000000E+00 1.000000E+00 6.105333E-01
9.375000E-01 1.000000E+00 5.988021E-01
9.125000E-01 9.125000E-01 5.655493E-01
9.562500E-01 9.187500E-01 5.851803E-01
9.625000E-01 9.625000E-01 6.020988E-01
9.187500E-01 9.562500E-01 5.851803E-01
8.125000E-01 7.500000E-01 3.589556E-01
8.750000E-01 7.500000E-01 3.988501E-01
8.750000E-01 8.125000E-01 4.689981E-01
7.875000E-01 7.875000E-01 3.765298E-01
8.312500E-01 7.937500E-01 4.199712E-01
8.375000E-01 8.375000E-01 4.647681E-01
7.937500E-01 8.312500E-01 4.199712E-01
9.375000E-01 7.500000E-01 4.234170E-01
1.000000E+00 7.500000E-01 4.317123E-01
1.000000E+00 8.125000E-01 5.076399E-01
9.125000E-01 7.875000E-01 4.614609E-01
9.562500E-01 7.937500E-01 4.822001E-01
9.625000E-01 8.375000E-01 5.289955E-01
9.187500E-01 8.312500E-01 5.096616E-01
5.625000E-01 6.250000E-01 4.558110E-02
6.250000E-01 6.250000E-01 8.941054E-02
6.250000E-01 6.875000E-01 1.298040E-01
5.375000E-01 6.625000E-01 3.506370E-02
5.812500E-01 6.687500E-01 7.794937E-02
5.875000E-01 7.125000E-01 1.025984E-01
5.437500E-01 7.062500E-01 5.048782E-02
6.875000E-01 6.250000E-01 1.298040E-01
7.500000E-01 6.250000E-01 1.652091E-01
7.500000E-01 6.875000E-01 2.398465E-01
6.625000E-01 6.625000E-01 1.457653E-01
7.062500E-01 6.687500E-01 1.863302E-01
7.125000E-01 7.125000E-01 2.340036E-01
6.687500E-01 7.062500E-01 1.863302E-01
5.625000E-01 5.000000E-01 -7.293332E-18
6.250000E-01 5.000000E-01 -1.430638E-17
6.250000E-01 5.625000E-01 4.558110E-02
5.375000E-01 5.375000E-01 8.434542E-03
5.812500E-01 5.437500E-01 2.112107E-02
5.875000E-01 5.875000E-01 4.498405E-02
5.437500E-01 5.812500E-01 2.112107E-02
6.875000E-01 5.000000E-01 -2.076965E-17
7.500000E-01 5.000000E-01 -2.643475E-17
7.500000E-01 5.625000E-01 8.422288E-02
6.625000E-01 5.375000E-01 3.506370E-02
7.062500E-01 5.437500E-01 5.048782E-02
7.125000E-01 5.875000E-01 1.025984E-01
6.687500E-01 5.812500E-01 7.794937E-02
8.125000E-01 6.250000E-01 1.942654E-01
8.750000E-01 6.250000E-01 2.158561E-01
8.750000E-01 6.875000E-01 3.133745E-01
7.875000E-01 6.625000E-01 2.342754E-01
8.312500E-01 6.687500E-01 2.663439E-01
8.375000E-01 7.125000E-01 3.297839E-01
7.937500E-01 7.062500E-01 2.938055E-01
9.375000E-01 6.250000E-01 2.291516E-01
1.000000E+00 6.250000E-01 2.336410E-01
1.000000E+00 6.875000E-01 3.391941E-01
9.125000E-01 6.625000E-01 2.871192E-01
9.562500E-01 6.687500E-01 3.058092E-01
9.625000E-01 7.125000E-01 3.753575E-01
9.187500E-01 7.062500E-01 3.565516E-01
8.125000E-01 5.000000E-01 -3.108398E-17
8.750000E-01 5.000000E-01 -3.453867E-17
8.750000E-01 5.625000E-01 1.100425E-01
7.875000E-01 5.375000E-01 5.635474E-02
8.312500E-01 5.437500E-01 7.216825E-02
8.375000E-01 5.875000E-01 1.445930E-01
7.937500E-01 5.812500E-01 1.229106E-01
9.375000E-01 5.000000E-01 -3.666605E-17
1.000000E+00 5.000000E-01 -3.738438E-17
1.000000E+00 5.625000E-01 1.191091E-01
9.125000E-01 5.375000E-01 6.906627E-02
9.562500E-01 5.437500E-01 8.286172E-02
9.625000E-01 5.875000E-01 1.645747E-01
9.187500E-01 5.812500E-01 1.491598E-01
0.000000E+00 3.750000E-01 2.336410E-01
6.250000E-02 3.750000E-01 2.291516E-01
[...]
CELL_DATA 896
SCALARS sol float 1
LOOKUP_TABLE default
-5.669394E-01
-5.694565E-01
-5.821331E-01
-5.463470E-01
-5.847402E-01
-5.486515E-01
-5.938041E-01
-5.311533E-01
-5.292233E-01
-5.847402E-01
-5.486515E-01
-5.290107E-01
-6.028025E-01
-5.018465E-01
-5.018224E-01
-5.938041E-01
-5.694565E-01
-5.290107E-01
-5.009364E-01
-6.028025E-01
-4.896393E-01
-4.718303E-01
-4.842349E-01
-5.821331E-01
-5.669394E-01
-5.009364E-01
-5.292233E-01
-4.815158E-01
-4.568581E-01
-4.437560E-01
-4.462889E-01
-5.463470E-01
-4.842349E-01
-4.815158E-01
-5.018224E-01
-4.472511E-01
-4.310952E-01
-4.067151E-01
-4.287257E-01
-5.311533E-01
-4.462889E-01
-4.472511E-01
-4.896393E-01
-4.202946E-01
-3.953512E-01
-3.786408E-01
-3.840731E-01
-3.920449E-01
-5.018465E-01
-4.310952E-01
-4.287257E-01
-4.202946E-01
-4.568581E-01
-3.884709E-01
-3.586704E-01
-3.334873E-01
-3.425067E-01
-3.585719E-01
-4.718303E-01
-3.953512E-01
-3.920449E-01
-3.884709E-01
-4.437560E-01
-3.507836E-01
-3.252929E-01
-3.433782E-01
-3.199952E-01
-2.896956E-01
-3.245659E-01
-3.586704E-01
-3.840731E-01
-3.585719E-01
-3.507836E-01
-4.067151E-01
-3.203515E-01
-2.759828E-01
-2.971890E-01
-2.747071E-01
-2.530148E-01
-2.869638E-01
-3.252929E-01
-3.433782E-01
-3.425067E-01
-3.245659E-01
-3.203515E-01
-3.786408E-01
-2.806484E-01
-2.479085E-01
-2.631711E-01
-2.747806E-01
-2.051645E-01
-2.609427E-01
-2.759828E-01
-2.971890E-01
-3.199952E-01
-2.869638E-01
-2.806484E-01
-3.334873E-01
-2.558394E-01
-2.015031E-01
-2.234680E-01
-2.335658E-01
-1.684836E-01
-1.804513E-01
-2.170683E-01
-2.479085E-01
-2.631711E-01
-2.747806E-01
-2.747071E-01
-2.609427E-01
-2.558394E-01
-2.896956E-01
-2.156464E-01
-1.618000E-01
-1.810386E-01
-2.018746E-01
-1.143577E-01
-1.310475E-01
-1.965811E-01
-2.015031E-01
-2.234680E-01
-2.335658E-01
-2.530148E-01
-2.170683E-01
-2.156464E-01
-1.877332E-01
-1.529643E-01
-1.168280E-01
-1.524684E-01
-1.632066E-01
-1.016347E-01
-6.345741E-02
-1.599003E-01
-1.618000E-01
-1.804513E-01
-1.810386E-01
-2.018746E-01
-2.051645E-01
-1.965811E-01
-1.877332E-01
-1.568662E-01
-1.018826E-01
-6.366092E-02
-1.099454E-01
-1.265258E-01
-5.073444E-02
-2.375436E-02
-1.293513E-01
-1.168280E-01
-1.529643E-01
-1.310475E-01
-1.524684E-01
-1.632066E-01
-1.684836E-01
-1.599003E-01
-1.568662E-01
-1.251071E-01
-8.743384E-02
-5.755108E-02
-2.698008E-02
-9.368822E-02
-1.141576E-01
2.762057E-02
-1.012736E-01
-6.366092E-02
-1.018826E-01
-1.016347E-01
-1.099454E-01
-1.265258E-01
-1.143577E-01
-1.293513E-01
-1.251071E-01
-1.000635E-01
-4.310237E-02
-2.087025E-02
2.302209E-02
-5.030641E-02
-7.389675E-02
6.732362E-02
5.064266E-02
-7.210514E-02
-2.698008E-02
-5.755108E-02
-8.743384E-02
-5.073444E-02
-9.368822E-02
-1.141576E-01
-6.345741E-02
-1.012736E-01
-1.000635E-01
-7.198921E-02
-2.223212E-02
2.405608E-02
5.970292E-02
-4.288312E-02
-5.992197E-02
1.221819E-01
1.003626E-01
-5.628521E-02
2.302209E-02
-2.087025E-02
-4.310237E-02
-2.375436E-02
-5.030641E-02
-7.389675E-02
-7.210514E-02
-7.198921E-02
-5.797145E-02
1.878491E-02
6.073692E-02
4.284100E-02
1.094228E-01
-1.480883E-02
-2.890834E-02
1.321987E-01
1.724416E-01
-2.929321E-02
5.970292E-02
5.064266E-02
2.405608E-02
-2.223212E-02
2.762057E-02
-4.288312E-02
-5.992197E-02
-5.628521E-02
-5.797145E-02
-3.466084E-02
4.685921E-02
1.089346E-01
8.381119E-02
1.583528E-01
1.682927E-02
-1.409951E-02
1.809620E-01
2.091225E-01
-2.168660E-02
1.094228E-01
6.073692E-02
1.003626E-01
4.284100E-02
1.878491E-02
6.732362E-02
-1.480883E-02
-2.890834E-02
-2.929321E-02
-3.466084E-02
-2.328753E-02
4.490357E-02
8.782940E-02
1.132240E-01
1.568306E-01
1.980559E-01
2.851717E-02
1.168790E-02
2.562006E-01
-6.492901E-03
1.583528E-01
1.089346E-01
1.321987E-01
8.381119E-02
4.685921E-02
1.221819E-01
1.682927E-02
-1.409951E-02
-2.168660E-02
-2.328753E-02
-1.031329E-02
7.910303E-02
1.241142E-01
1.539230E-01
1.849049E-01
2.440423E-01
5.450030E-02
2.688160E-02
2.928815E-01
2.740267E-01
7.040357E-03
1.980559E-01
1.568306E-01
1.132240E-01
1.809620E-01
8.782940E-02
4.490357E-02
1.724416E-01
2.851717E-02
1.168790E-02
-6.492901E-03
-1.031329E-02
-3.820388E-03
7.701186E-02
1.173435E-01
1.607950E-01
2.254885E-01
2.721166E-01
5.286472E-02
2.223406E-02
3.401203E-01
3.164933E-01
9.851872E-03
2.440423E-01
1.849049E-01
1.539230E-01
2.091225E-01
1.241142E-01
7.910303E-02
5.450030E-02
2.688160E-02
7.040357E-03
-3.820388E-03
2.811514E-03
1.034506E-01
1.325372E-01
1.979166E-01
2.651915E-01
2.316282E-01
3.190151E-01
7.098034E-02
3.722874E-02
3.459061E-01
3.820880E-01
1.689223E-02
2.721166E-01
2.740267E-01
2.254885E-01
1.607950E-01
2.562006E-01
1.173435E-01
7.701186E-02
5.286472E-02
2.223406E-02
9.851872E-03
2.811514E-03
2.811514E-03
9.905463E-02
1.604478E-01
2.131103E-01
3.031674E-01
2.648083E-01
3.562587E-01
5.999189E-02
2.907540E-02
3.851087E-01
4.101623E-01
9.851872E-03
3.190151E-01
2.651915E-01
3.164933E-01
2.316282E-01
1.979166E-01
2.928815E-01
1.325372E-01
1.034506E-01
7.098034E-02
3.722874E-02
1.689223E-02
2.811514E-03
-3.820388E-03
1.216599E-01
1.971286E-01
1.539665E-01
2.559758E-01
2.966444E-01
3.473362E-01
3.929396E-01
5.999189E-02
3.722874E-02
4.457765E-01
7.040357E-03
3.562587E-01
3.031674E-01
3.459061E-01
2.648083E-01
2.131103E-01
3.401203E-01
1.604478E-01
9.905463E-02
5.999189E-02
2.907540E-02
9.851872E-03
-3.820388E-03
-1.031329E-02
1.216599E-01
2.200601E-01
1.728086E-01
2.796396E-01
3.275150E-01
3.625299E-01
4.279093E-01
7.098034E-02
2.223406E-02
4.738508E-01
4.556927E-01
-6.492901E-03
3.929396E-01
3.473362E-01
2.966444E-01
3.851087E-01
2.559758E-01
1.971286E-01
3.820880E-01
1.539665E-01
1.216599E-01
5.999189E-02
3.722874E-02
7.040357E-03
-1.031329E-02
-2.328753E-02
9.905463E-02
1.539665E-01
2.022213E-01
2.597056E-01
3.193426E-01
3.925923E-01
4.431030E-01
5.286472E-02
2.688160E-02
5.062785E-01
4.844409E-01
-2.168660E-02
4.279093E-01
3.625299E-01
3.275150E-01
4.101623E-01
2.796396E-01
2.200601E-01
1.728086E-01
1.216599E-01
7.098034E-02
2.223406E-02
-6.492901E-03
-2.328753E-02
-3.466084E-02
1.034506E-01
1.604478E-01
2.200601E-01
2.597056E-01
3.469173E-01
4.292731E-01
3.851522E-01
4.800402E-01
5.450030E-02
1.168790E-02
5.069524E-01
5.335649E-01
-2.929321E-02
4.431030E-01
4.556927E-01
3.925923E-01
3.193426E-01
4.457765E-01
2.597056E-01
2.022213E-01
1.539665E-01
9.905463E-02
5.286472E-02
2.688160E-02
-2.168660E-02
-3.466084E-02
-5.797145E-02
7.701186E-02
1.325372E-01
1.971286E-01
2.796396E-01
3.469173E-01
4.512458E-01
4.054907E-01
4.999275E-01
2.851717E-02
-1.409951E-02
5.306261E-01
5.487586E-01
-5.628521E-02
4.800402E-01
4.292731E-01
4.844409E-01
3.851522E-01
3.469173E-01
4.738508E-01
2.597056E-01
2.200601E-01
1.604478E-01
1.034506E-01
5.450030E-02
1.168790E-02
-2.929321E-02
-5.797145E-02
-7.198921E-02
7.910303E-02
1.173435E-01
2.131103E-01
3.193426E-01
2.559758E-01
3.851522E-01
4.349035E-01
4.849630E-01
5.280018E-01
1.682927E-02
-2.890834E-02
5.674869E-01
-7.210514E-02
4.999275E-01
4.512458E-01
5.069524E-01
4.054907E-01
3.469173E-01
5.062785E-01
2.796396E-01
1.971286E-01
1.325372E-01
7.701186E-02
2.851717E-02
-1.409951E-02
-5.628521E-02
-7.198921E-02
-1.000635E-01
4.490357E-02
1.241142E-01
1.979166E-01
3.275150E-01
2.648083E-01
3.925923E-01
4.512458E-01
4.849630E-01
5.466310E-01
-1.480883E-02
-5.992197E-02
5.826806E-01
5.679835E-01
-1.012736E-01
5.280018E-01
4.849630E-01
4.349035E-01
5.306261E-01
3.851522E-01
3.193426E-01
5.335649E-01
2.559758E-01
2.131103E-01
1.173435E-01
7.910303E-02
1.682927E-02
-2.890834E-02
-7.210514E-02
-1.000635E-01
-1.251071E-01
4.685921E-02
1.607950E-01
8.782940E-02
2.316282E-01
2.966444E-01
3.625299E-01
4.292731E-01
4.999275E-01
5.466310E-01
-4.288312E-02
-7.389675E-02
5.953604E-01
5.786366E-01
-1.293513E-01
5.466310E-01
4.849630E-01
4.512458E-01
5.487586E-01
3.925923E-01
3.275150E-01
2.648083E-01
1.979166E-01
1.241142E-01
4.490357E-02
-1.480883E-02
-5.992197E-02
-1.012736E-01
-1.251071E-01
-1.568662E-01
1.878491E-02
1.539230E-01
8.381119E-02
2.254885E-01
3.031674E-01
3.473362E-01
4.431030E-01
5.280018E-01
4.800402E-01
5.679835E-01
-5.030641E-02
-1.141576E-01
5.908198E-01
6.038114E-01
-1.599003E-01
5.466310E-01
5.679835E-01
4.999275E-01
4.292731E-01
5.674869E-01
3.625299E-01
2.966444E-01
2.316282E-01
1.607950E-01
8.782940E-02
4.685921E-02
-4.288312E-02
-7.389675E-02
-1.293513E-01
-1.568662E-01
-1.877332E-01
4.284100E-02
-2.223212E-02
1.132240E-01
1.849049E-01
2.651915E-01
3.562587E-01
4.279093E-01
5.306261E-01
4.844409E-01
5.674869E-01
-9.368822E-02
-1.265258E-01
5.953604E-01
6.038114E-01
-1.965811E-01
5.679835E-01
5.280018E-01
5.786366E-01
4.800402E-01
4.431030E-01
5.826806E-01
3.473362E-01
3.031674E-01
2.254885E-01
1.539230E-01
8.381119E-02
1.878491E-02
-5.030641E-02
-1.141576E-01
-1.599003E-01
-1.877332E-01
-2.156464E-01
2.405608E-02
-4.310237E-02
1.089346E-01
1.568306E-01
2.721166E-01
3.929396E-01
3.190151E-01
4.556927E-01
5.069524E-01
5.487586E-01
5.826806E-01
-1.099454E-01
-1.632066E-01
-2.170683E-01
5.674869E-01
5.306261E-01
5.908198E-01
4.844409E-01
4.279093E-01
5.953604E-01
3.562587E-01
2.651915E-01
1.849049E-01
1.132240E-01
4.284100E-02
-2.223212E-02
-9.368822E-02
-1.265258E-01
-1.965811E-01
-2.156464E-01
-2.558394E-01
6.073692E-02
-2.087025E-02
-8.743384E-02
1.583528E-01
2.440423E-01
3.851087E-01
3.164933E-01
4.457765E-01
5.062785E-01
5.335649E-01
-1.524684E-01
-2.018746E-01
-2.609427E-01
5.826806E-01
5.487586E-01
5.069524E-01
5.953604E-01
4.556927E-01
3.929396E-01
6.038114E-01
3.190151E-01
2.721166E-01
1.568306E-01
1.089346E-01
2.405608E-02
-4.310237E-02
-1.099454E-01
-1.632066E-01
-2.170683E-01
-2.558394E-01
-2.806484E-01
5.970292E-02
-5.755108E-02
-1.018826E-01
1.980559E-01
1.094228E-01
2.740267E-01
3.459061E-01
4.101623E-01
4.738508E-01
-1.810386E-01
-2.335658E-01
-2.869638E-01
5.335649E-01
5.062785E-01
6.038114E-01
4.457765E-01
3.851087E-01
3.164933E-01
2.440423E-01
1.583528E-01
6.073692E-02
-2.087025E-02
-8.743384E-02
-1.524684E-01
-2.018746E-01
-2.609427E-01
-2.806484E-01
-3.203515E-01
2.302209E-02
-6.366092E-02
-1.529643E-01
1.809620E-01
1.003626E-01
2.562006E-01
3.401203E-01
3.820880E-01
-2.234680E-01
-2.747806E-01
-3.245659E-01
4.738508E-01
4.101623E-01
3.459061E-01
2.740267E-01
1.980559E-01
1.094228E-01
5.970292E-02
-5.755108E-02
-1.018826E-01
-1.810386E-01
-2.335658E-01
-2.869638E-01
-3.203515E-01
-3.507836E-01
5.064266E-02
-2.698008E-02
-1.168280E-01
-1.618000E-01
1.321987E-01
2.091225E-01
2.928815E-01
-2.631711E-01
-2.971890E-01
-3.585719E-01
3.820880E-01
3.401203E-01
2.562006E-01
1.809620E-01
1.003626E-01
2.302209E-02
-6.366092E-02
-1.529643E-01
-2.234680E-01
-2.747806E-01
-3.245659E-01
-3.507836E-01
-3.884709E-01
2.762057E-02
-5.073444E-02
-1.310475E-01
-2.015031E-01
1.221819E-01
1.724416E-01
-2.759828E-01
-3.433782E-01
-3.920449E-01
2.928815E-01
2.091225E-01
1.321987E-01
5.064266E-02
-2.698008E-02
-1.168280E-01
-1.618000E-01
-2.631711E-01
-2.971890E-01
-3.585719E-01
-3.884709E-01
-4.202946E-01
6.732362E-02
-2.375436E-02
-1.016347E-01
-1.804513E-01
-2.479085E-01
-3.252929E-01
-3.586704E-01
-4.287257E-01
1.724416E-01
1.221819E-01
2.762057E-02
-5.073444E-02
-1.310475E-01
-2.015031E-01
-2.759828E-01
-3.433782E-01
-3.920449E-01
-4.202946E-01
-4.472511E-01
-6.345741E-02
-1.143577E-01
-2.051645E-01
-2.747071E-01
-3.425067E-01
-3.953512E-01
-4.462889E-01
6.732362E-02
-2.375436E-02
-1.016347E-01
-1.804513E-01
-2.479085E-01
-3.252929E-01
-3.586704E-01
-4.287257E-01
-4.472511E-01
-4.815158E-01
-1.684836E-01
-2.530148E-01
-3.199952E-01
-3.840731E-01
-4.310952E-01
-4.842349E-01
-6.345741E-02
-1.143577E-01
-2.051645E-01
-2.747071E-01
-3.425067E-01
-3.953512E-01
-4.462889E-01
-4.815158E-01
-5.009364E-01
-2.896956E-01
-3.334873E-01
-4.067151E-01
-4.568581E-01
-5.018224E-01
-1.684836E-01
-2.530148E-01
-3.199952E-01
-3.840731E-01
-4.310952E-01
-4.842349E-01
-5.009364E-01
-5.290107E-01
-3.786408E-01
-4.437560E-01
-4.896393E-01
-5.292233E-01
-2.896956E-01
-3.334873E-01
-4.067151E-01
-4.568581E-01
-5.018224E-01
-5.290107E-01
-5.486515E-01
-4.718303E-01
-5.018465E-01
-5.463470E-01
-3.786408E-01
-4.437560E-01
-4.896393E-01
-5.292233E-01
-5.486515E-01
-5.694565E-01
-5.311533E-01
-5.669394E-01
-4.718303E-01
-5.018465E-01
-5.463470E-01
-5.694565E-01
-5.847402E-01
-5.821331E-01
-5.311533E-01
-5.669394E-01
-5.847402E-01
-5.938041E-01
-5.821331E-01
-5.938041E-01
-6.028025E-01
-6.028025E-01
