# vtk DataFile Version 2.0
Grille
ASCII
DATASET POLYDATA
POINTS 481 float
0.000000E+00 8.750000E-01 -9.225874E-01
6.250000E-02 8.750000E-01 -9.030428E-01
1.250000E-01 8.750000E-01 -8.523002E-01
1.250000E-01 9.375000E-01 -9.030428E-01
1.250000E-01 1.000000E+00 -9.225874E-01
6.250000E-02 1.000000E+00 -9.775435E-01
0.000000E+00 1.000000E+00 -9.991572E-01
0.000000E+00 9.375000E-01 -9.775435E-01
3.750000E-02 9.125000E-01 -9.514167E-01
8.125000E-02 9.187500E-01 -9.327488E-01
8.750000E-02 9.625000E-01 -9.514167E-01
4.375000E-02 9.562500E-01 -9.777463E-01
1.875000E-01 8.750000E-01 -7.656092E-01
2.500000E-01 8.750000E-01 -6.522004E-01
2.500000E-01 9.375000E-01 -6.911089E-01
2.500000E-01 1.000000E+00 -7.059508E-01
1.875000E-01 1.000000E+00 -8.285410E-01
1.625000E-01 9.125000E-01 -8.358694E-01
2.062500E-01 9.187500E-01 -7.684233E-01
2.125000E-01 9.625000E-01 -7.761776E-01
1.687500E-01 9.562500E-01 -8.513750E-01
0.000000E+00 7.500000E-01 -7.059508E-01
6.250000E-02 7.500000E-01 -6.911089E-01
1.250000E-01 7.500000E-01 -6.522004E-01
1.250000E-01 8.125000E-01 -7.656092E-01
0.000000E+00 8.125000E-01 -8.285410E-01
3.750000E-02 7.875000E-01 -7.761776E-01
8.125000E-02 7.937500E-01 -7.684233E-01
8.750000E-02 8.375000E-01 -8.358694E-01
4.375000E-02 8.312500E-01 -8.513750E-01
1.875000E-01 7.500000E-01 -5.861046E-01
2.500000E-01 7.500000E-01 -4.990589E-01
2.500000E-01 8.125000E-01 -5.861046E-01
1.625000E-01 7.875000E-01 -6.820810E-01
2.062500E-01 7.937500E-01 -6.330278E-01
2.125000E-01 8.375000E-01 -6.820810E-01
1.687500E-01 8.312500E-01 -7.413827E-01
3.125000E-01 8.750000E-01 -5.116225E-01
3.750000E-01 8.750000E-01 -3.528197E-01
3.750000E-01 9.375000E-01 -3.739978E-01
3.750000E-01 1.000000E+00 -3.818908E-01
3.125000E-01 1.000000E+00 -5.535167E-01
2.875000E-01 9.125000E-01 -5.930957E-01
3.312500E-01 9.187500E-01 -4.871491E-01
3.375000E-01 9.625000E-01 -4.828419E-01
2.937500E-01 9.562500E-01 -5.954912E-01
4.375000E-01 8.750000E-01 -1.797546E-01
5.000000E-01 8.750000E-01 2.690079E-04
5.000000E-01 9.375000E-01 3.787639E-05
5.000000E-01 1.000000E+00 2.926671E-04
4.375000E-01 1.000000E+00 -1.942512E-01
4.125000E-01 9.125000E-01 -2.600491E-01
4.562500E-01 9.187500E-01 -1.317264E-01
4.625000E-01 9.625000E-01 -1.160179E-01
4.187500E-01 9.562500E-01 -2.489778E-01
3.125000E-01 7.500000E-01 -3.918324E-01
3.750000E-01 7.500000E-01 -2.699165E-01
3.750000E-01 8.125000E-01 -3.173606E-01
2.875000E-01 7.875000E-01 -4.841055E-01
3.312500E-01 7.937500E-01 -4.012362E-01
3.375000E-01 8.375000E-01 -4.244442E-01
2.937500E-01 8.312500E-01 -5.185016E-01
4.375000E-01 7.500000E-01 -1.378917E-01
5.000000E-01 7.500000E-01 3.296375E-04
5.000000E-01 8.125000E-01 -2.982109E-04
4.125000E-01 7.875000E-01 -2.124177E-01
4.562500E-01 7.937500E-01 -1.083526E-01
4.625000E-01 8.375000E-01 -1.021902E-01
4.187500E-01 8.312500E-01 -2.166815E-01
0.000000E+00 6.250000E-01 -3.818908E-01
6.250000E-02 6.250000E-01 -3.739978E-01
1.250000E-01 6.250000E-01 -3.528197E-01
1.250000E-01 6.875000E-01 -5.116225E-01
0.000000E+00 6.875000E-01 -5.535167E-01
3.750000E-02 6.625000E-01 -4.828419E-01
8.125000E-02 6.687500E-01 -4.871491E-01
8.750000E-02 7.125000E-01 -5.930957E-01
4.375000E-02 7.062500E-01 -5.954912E-01
1.875000E-01 6.250000E-01 -3.173606E-01
2.500000E-01 6.250000E-01 -2.699165E-01
2.500000E-01 6.875000E-01 -3.918324E-01
1.625000E-01 6.625000E-01 -4.244442E-01
2.062500E-01 6.687500E-01 -4.012362E-01
2.125000E-01 7.125000E-01 -4.841055E-01
1.687500E-01 7.062500E-01 -5.185016E-01
0.000000E+00 5.000000E-01 2.926671E-04
6.250000E-02 5.000000E-01 3.787639E-05
1.250000E-01 5.000000E-01 2.690079E-04
1.250000E-01 5.625000E-01 -1.797546E-01
0.000000E+00 5.625000E-01 -1.942512E-01
3.750000E-02 5.375000E-01 -1.160179E-01
8.125000E-02 5.437500E-01 -1.317264E-01
8.750000E-02 5.875000E-01 -2.600491E-01
4.375000E-02 5.812500E-01 -2.489778E-01
1.875000E-01 5.000000E-01 -2.982109E-04
2.500000E-01 5.000000E-01 3.296375E-04
2.500000E-01 5.625000E-01 -1.378917E-01
1.625000E-01 5.375000E-01 -1.021902E-01
2.062500E-01 5.437500E-01 -1.083526E-01
2.125000E-01 5.875000E-01 -2.124177E-01
1.687500E-01 5.812500E-01 -2.166815E-01
3.125000E-01 6.250000E-01 -2.123576E-01
3.750000E-01 6.250000E-01 -1.458841E-01
3.750000E-01 6.875000E-01 -2.123576E-01
2.875000E-01 6.625000E-01 -3.013793E-01
3.312500E-01 6.687500E-01 -2.541977E-01
3.375000E-01 7.125000E-01 -3.013793E-01
2.937500E-01 7.062500E-01 -3.625339E-01
4.375000E-01 6.250000E-01 -7.499657E-02
5.000000E-01 6.250000E-01 3.805875E-04
5.000000E-01 6.875000E-01 -5.350676E-04
4.125000E-01 6.625000E-01 -1.324035E-01
4.562500E-01 6.687500E-01 -6.843659E-02
4.625000E-01 7.125000E-01 -7.275255E-02
4.187500E-01 7.062500E-01 -1.513503E-01
3.125000E-01 5.000000E-01 -5.350676E-04
3.750000E-01 5.000000E-01 3.805875E-04
3.750000E-01 5.625000E-01 -7.499657E-02
2.875000E-01 5.375000E-01 -7.275255E-02
3.312500E-01 5.437500E-01 -6.843659E-02
3.375000E-01 5.875000E-01 -1.324035E-01
2.937500E-01 5.812500E-01 -1.513503E-01
4.375000E-01 5.000000E-01 -6.582509E-04
5.000000E-01 5.000000E-01 4.000954E-04
5.000000E-01 5.625000E-01 -6.582509E-04
4.125000E-01 5.375000E-01 -3.220408E-02
4.562500E-01 5.437500E-01 -1.807183E-02
4.625000E-01 5.875000E-01 -3.220408E-02
4.187500E-01 5.812500E-01 -6.294459E-02
5.625000E-01 8.750000E-01 1.794755E-01
6.250000E-01 8.750000E-01 3.533135E-01
6.250000E-01 9.375000E-01 3.740601E-01
6.250000E-01 1.000000E+00 3.824225E-01
5.625000E-01 1.000000E+00 1.945767E-01
5.375000E-01 9.125000E-01 1.125794E-01
5.812500E-01 9.187500E-01 2.437434E-01
5.875000E-01 9.625000E-01 2.684596E-01
5.437500E-01 9.562500E-01 1.354295E-01
6.875000E-01 8.750000E-01 5.113783E-01
7.500000E-01 8.750000E-01 6.525634E-01
7.500000E-01 9.375000E-01 6.911219E-01
7.500000E-01 1.000000E+00 7.063161E-01
6.875000E-01 1.000000E+00 5.537717E-01
6.625000E-01 9.125000E-01 4.680623E-01
7.062500E-01 9.187500E-01 5.820971E-01
7.125000E-01 9.625000E-01 6.120552E-01
6.687500E-01 9.562500E-01 4.992099E-01
5.625000E-01 7.500000E-01 1.370512E-01
6.250000E-01 7.500000E-01 2.705344E-01
6.250000E-01 8.125000E-01 3.168123E-01
5.375000E-01 7.875000E-01 9.161450E-02
5.812500E-01 7.937500E-01 2.010313E-01
5.875000E-01 8.375000E-01 2.356215E-01
5.437500E-01 8.312500E-01 1.181271E-01
6.875000E-01 7.500000E-01 3.911386E-01
7.500000E-01 7.500000E-01 4.995642E-01
7.500000E-01 8.125000E-01 5.856942E-01
6.625000E-01 7.875000E-01 3.817045E-01
7.062500E-01 7.937500E-01 4.798151E-01
7.125000E-01 8.375000E-01 5.375618E-01
6.687500E-01 8.312500E-01 4.349525E-01
8.125000E-01 8.750000E-01 7.654199E-01
8.750000E-01 8.750000E-01 8.524554E-01
8.750000E-01 9.375000E-01 9.029293E-01
8.750000E-01 1.000000E+00 9.226279E-01
8.125000E-01 1.000000E+00 8.286334E-01
7.875000E-01 9.125000E-01 7.522731E-01
8.312500E-01 9.187500E-01 8.318105E-01
8.375000E-01 9.625000E-01 8.624396E-01
7.937500E-01 9.562500E-01 7.869694E-01
9.375000E-01 8.750000E-01 9.029293E-01
1.000000E+00 8.750000E-01 9.226279E-01
1.000000E+00 9.375000E-01 9.772323E-01
1.000000E+00 1.000000E+00 9.980793E-01
9.375000E-01 1.000000E+00 9.772323E-01
9.125000E-01 9.125000E-01 9.219251E-01
9.562500E-01 9.187500E-01 9.548493E-01
9.625000E-01 9.625000E-01 9.813988E-01
9.187500E-01 9.562500E-01 9.548493E-01
8.125000E-01 7.500000E-01 5.856942E-01
8.750000E-01 7.500000E-01 6.525634E-01
8.750000E-01 8.125000E-01 7.654199E-01
7.875000E-01 7.875000E-01 6.136916E-01
8.312500E-01 7.937500E-01 6.855611E-01
8.375000E-01 8.375000E-01 7.576635E-01
7.937500E-01 8.312500E-01 6.855611E-01
9.375000E-01 7.500000E-01 6.911219E-01
1.000000E+00 7.500000E-01 7.063161E-01
1.000000E+00 8.125000E-01 8.286334E-01
9.125000E-01 7.875000E-01 7.522731E-01
9.562500E-01 7.937500E-01 7.869694E-01
9.625000E-01 8.375000E-01 8.624396E-01
9.187500E-01 8.312500E-01 8.318105E-01
5.625000E-01 6.250000E-01 7.380141E-02
6.250000E-01 6.250000E-01 1.466058E-01
6.250000E-01 6.875000E-01 2.113832E-01
5.375000E-01 6.625000E-01 5.674773E-02
5.812500E-01 6.687500E-01 1.277595E-01
5.875000E-01 7.125000E-01 1.669626E-01
5.437500E-01 7.062500E-01 8.288921E-02
6.875000E-01 6.250000E-01 2.113832E-01
7.500000E-01 6.250000E-01 2.705344E-01
7.500000E-01 6.875000E-01 3.911386E-01
6.625000E-01 6.625000E-01 2.372761E-01
7.062500E-01 6.687500E-01 3.045228E-01
7.125000E-01 7.125000E-01 3.812732E-01
6.687500E-01 7.062500E-01 3.045228E-01
5.625000E-01 5.000000E-01 -6.582509E-04
6.250000E-01 5.000000E-01 3.805875E-04
6.250000E-01 5.625000E-01 7.380141E-02
5.375000E-01 5.375000E-01 1.327101E-02
5.812500E-01 5.437500E-01 3.506624E-02
5.875000E-01 5.875000E-01 7.291869E-02
5.437500E-01 5.812500E-01 3.506624E-02
6.875000E-01 5.000000E-01 -5.350676E-04
7.500000E-01 5.000000E-01 3.296375E-04
7.500000E-01 5.625000E-01 1.370512E-01
6.625000E-01 5.375000E-01 5.674773E-02
7.062500E-01 5.437500E-01 8.288921E-02
7.125000E-01 5.875000E-01 1.669626E-01
6.687500E-01 5.812500E-01 1.277595E-01
8.125000E-01 6.250000E-01 3.168123E-01
8.750000E-01 6.250000E-01 3.533135E-01
8.750000E-01 6.875000E-01 5.113783E-01
7.875000E-01 6.625000E-01 3.817045E-01
8.312500E-01 6.687500E-01 4.349525E-01
8.375000E-01 7.125000E-01 5.375618E-01
7.937500E-01 7.062500E-01 4.798151E-01
9.375000E-01 6.250000E-01 3.740601E-01
1.000000E+00 6.250000E-01 3.824225E-01
1.000000E+00 6.875000E-01 5.537717E-01
9.125000E-01 6.625000E-01 4.680623E-01
9.562500E-01 6.687500E-01 4.992099E-01
9.625000E-01 7.125000E-01 6.120552E-01
9.187500E-01 7.062500E-01 5.820971E-01
8.125000E-01 5.000000E-01 -2.982109E-04
8.750000E-01 5.000000E-01 2.690079E-04
8.750000E-01 5.625000E-01 1.794755E-01
7.875000E-01 5.375000E-01 9.161450E-02
8.312500E-01 5.437500E-01 1.181271E-01
8.375000E-01 5.875000E-01 2.356215E-01
7.937500E-01 5.812500E-01 2.010313E-01
9.375000E-01 5.000000E-01 3.787639E-05
1.000000E+00 5.000000E-01 2.926671E-04
1.000000E+00 5.625000E-01 1.945767E-01
9.125000E-01 5.375000E-01 1.125794E-01
9.562500E-01 5.437500E-01 1.354295E-01
9.625000E-01 5.875000E-01 2.684596E-01
9.187500E-01 5.812500E-01 2.437434E-01
0.000000E+00 3.750000E-01 3.824225E-01
6.250000E-02 3.750000E-01 3.740601E-01
[...]
CELL_DATA 896
SCALARS sol float 1
LOOKUP_TABLE default
-9.256823E-01
-9.290694E-01
-9.505159E-01
-8.923351E-01
-9.539706E-01
-8.960306E-01
-9.689022E-01
-8.675012E-01
-8.634291E-01
-9.539706E-01
-8.960306E-01
-8.637375E-01
-9.848157E-01
-8.186979E-01
-8.185559E-01
-9.689022E-01
-9.290694E-01
-8.637375E-01
-8.179263E-01
-9.848157E-01
-7.986586E-01
-7.702231E-01
-7.899673E-01
-9.505159E-01
-9.256823E-01
-8.179263E-01
-8.634291E-01
-7.864307E-01
-7.452366E-01
-7.244124E-01
-7.287443E-01
-8.923351E-01
-7.899673E-01
-7.864307E-01
-8.185559E-01
-7.296910E-01
-7.039109E-01
-6.641836E-01
-6.999636E-01
-8.675012E-01
-7.287443E-01
-7.296910E-01
-7.986586E-01
-6.854972E-01
-6.454683E-01
-6.183196E-01
-6.265652E-01
-6.401287E-01
-8.186979E-01
-7.039109E-01
-6.999636E-01
-6.854972E-01
-7.452366E-01
-6.337378E-01
-5.856395E-01
-5.439499E-01
-5.585787E-01
-5.856022E-01
-7.702231E-01
-6.454683E-01
-6.401287E-01
-6.337378E-01
-7.244124E-01
-5.727304E-01
-5.306224E-01
-5.607748E-01
-5.218274E-01
-4.727498E-01
-5.295706E-01
-5.856395E-01
-6.265652E-01
-5.856022E-01
-5.727304E-01
-6.641836E-01
-5.230897E-01
-4.505304E-01
-4.848561E-01
-4.479963E-01
-4.129102E-01
-4.679478E-01
-5.306224E-01
-5.607748E-01
-5.585787E-01
-5.295706E-01
-5.230897E-01
-6.183196E-01
-4.583322E-01
-4.046555E-01
-4.296288E-01
-4.480607E-01
-3.349555E-01
-4.257247E-01
-4.505304E-01
-4.848561E-01
-5.218274E-01
-4.679478E-01
-4.583322E-01
-5.439499E-01
-4.178084E-01
-3.289555E-01
-3.648748E-01
-3.810137E-01
-2.750399E-01
-2.943416E-01
-3.543284E-01
-4.046555E-01
-4.296288E-01
-4.480607E-01
-4.479963E-01
-4.257247E-01
-4.178084E-01
-4.727498E-01
-3.519152E-01
-2.642078E-01
-2.956206E-01
-3.295045E-01
-1.864156E-01
-2.135845E-01
-3.210427E-01
-3.289555E-01
-3.648748E-01
-3.810137E-01
-4.129102E-01
-3.543284E-01
-3.519152E-01
-3.060370E-01
-2.497519E-01
-1.905101E-01
-2.488200E-01
-2.665650E-01
-1.655741E-01
-1.033255E-01
-2.612178E-01
-2.642078E-01
-2.943416E-01
-2.956206E-01
-3.295045E-01
-3.349555E-01
-3.210427E-01
-3.060370E-01
-2.559782E-01
-1.662087E-01
-1.037373E-01
-1.791506E-01
-2.067420E-01
-8.256884E-02
-3.856247E-02
-2.112081E-01
-1.905101E-01
-2.497519E-01
-2.135845E-01
-2.488200E-01
-2.665650E-01
-2.750399E-01
-2.612178E-01
-2.559782E-01
-2.041465E-01
-1.424081E-01
-9.389192E-02
-4.380652E-02
-1.528873E-01
-1.863862E-01
4.525336E-02
-1.653704E-01
-1.037373E-01
-1.662087E-01
-1.655741E-01
-1.791506E-01
-2.067420E-01
-1.864156E-01
-2.112081E-01
-2.041465E-01
-1.635484E-01
-7.028034E-02
-3.407313E-02
3.762875E-02
-8.197155E-02
-1.206649E-01
1.100996E-01
8.268226E-02
-1.173968E-01
-4.380652E-02
-9.389192E-02
-1.424081E-01
-8.256884E-02
-1.528873E-01
-1.863862E-01
-1.033255E-01
-1.653704E-01
-1.635484E-01
-1.177614E-01
-3.610707E-02
3.936595E-02
9.744130E-02
-7.010486E-02
-9.751316E-02
1.994886E-01
1.639174E-01
-9.194554E-02
3.762875E-02
-3.407313E-02
-7.028034E-02
-3.856247E-02
-8.197155E-02
-1.206649E-01
-1.173968E-01
-1.177614E-01
-9.460843E-02
3.054864E-02
9.929052E-02
6.981445E-02
1.785994E-01
-2.431933E-02
-4.724140E-02
2.158775E-01
2.818196E-01
-4.768419E-02
9.744130E-02
8.268226E-02
3.936595E-02
-3.610707E-02
4.525336E-02
-7.010486E-02
-9.751316E-02
-9.194554E-02
-9.460843E-02
-5.671508E-02
7.633176E-02
1.777414E-01
1.369243E-01
2.588441E-01
2.756126E-02
-2.286369E-02
2.954210E-01
3.416474E-01
-3.560669E-02
1.785994E-01
9.929052E-02
1.639174E-01
6.981445E-02
3.054864E-02
1.100996E-01
-2.431933E-02
-4.724140E-02
-4.768419E-02
-5.671508E-02
-3.774017E-02
7.342333E-02
1.432323E-01
1.849266E-01
2.561368E-01
3.237057E-01
4.636729E-02
1.886442E-02
4.185641E-01
-1.082725E-02
2.588441E-01
1.777414E-01
2.158775E-01
1.369243E-01
7.633176E-02
1.994886E-01
2.756126E-02
-2.286369E-02
-3.560669E-02
-3.774017E-02
-1.697805E-02
1.289677E-01
2.028723E-01
2.511550E-01
3.019158E-01
3.984786E-01
8.913216E-02
4.364324E-02
4.784680E-01
4.471107E-01
1.159619E-02
3.237057E-01
2.561368E-01
1.849266E-01
2.954210E-01
1.432323E-01
7.342333E-02
2.818196E-01
4.636729E-02
1.886442E-02
-1.082725E-02
-1.697805E-02
-6.109995E-03
1.258705E-01
1.915161E-01
2.627927E-01
3.683594E-01
4.442514E-01
8.610289E-02
3.641608E-02
5.550123E-01
5.164564E-01
1.589300E-02
3.984786E-01
3.019158E-01
2.511550E-01
3.416474E-01
2.028723E-01
1.289677E-01
8.913216E-02
4.364324E-02
1.159619E-02
-6.109995E-03
4.337620E-03
1.687018E-01
2.162934E-01
3.230171E-01
4.332148E-01
3.778231E-01
5.205125E-01
1.160556E-01
6.059544E-02
5.644541E-01
6.240477E-01
2.780116E-02
4.442514E-01
4.471107E-01
3.683594E-01
2.627927E-01
4.185641E-01
1.915161E-01
1.258705E-01
8.610289E-02
3.641608E-02
1.589300E-02
4.337620E-03
4.337620E-03
1.619162E-01
2.621468E-01
3.477925E-01
4.946309E-01
4.321574E-01
5.820129E-01
9.777530E-02
4.768372E-02
6.284248E-01
6.698311E-01
1.589300E-02
5.205125E-01
4.332148E-01
5.164564E-01
3.778231E-01
3.230171E-01
4.784680E-01
2.162934E-01
1.687018E-01
1.160556E-01
6.059544E-02
2.780116E-02
4.337620E-03
-6.109995E-03
1.984217E-01
3.220652E-01
2.510607E-01
4.175527E-01
4.841098E-01
5.671678E-01
6.419275E-01
9.777530E-02
6.059544E-02
7.281358E-01
1.159619E-02
5.820129E-01
4.946309E-01
5.644541E-01
4.321574E-01
3.477925E-01
5.550123E-01
2.621468E-01
1.619162E-01
9.777530E-02
4.768372E-02
1.589300E-02
-6.109995E-03
-1.697805E-02
1.984217E-01
3.589782E-01
2.821072E-01
4.568393E-01
5.343570E-01
5.919398E-01
6.986528E-01
1.160556E-01
3.641608E-02
7.739729E-01
7.434548E-01
-1.082725E-02
6.419275E-01
5.671678E-01
4.841098E-01
6.284248E-01
4.175527E-01
3.220652E-01
6.240477E-01
2.510607E-01
1.984217E-01
9.777530E-02
6.059544E-02
1.159619E-02
-1.697805E-02
-3.774017E-02
1.619162E-01
2.510607E-01
3.301062E-01
4.239920E-01
5.216911E-01
6.412729E-01
7.234188E-01
8.610289E-02
4.364324E-02
8.260141E-01
7.903510E-01
-3.560669E-02
6.986528E-01
5.919398E-01
5.343570E-01
6.698311E-01
4.568393E-01
3.589782E-01
2.821072E-01
1.984217E-01
1.160556E-01
3.641608E-02
-1.082725E-02
-3.774017E-02
-5.671508E-02
1.687018E-01
2.621468E-01
3.589782E-01
4.239920E-01
5.663167E-01
7.011814E-01
6.283156E-01
7.831678E-01
8.913216E-02
1.886442E-02
8.270732E-01
8.712336E-01
-4.768419E-02
7.234188E-01
7.434548E-01
6.412729E-01
5.216911E-01
7.281358E-01
4.239920E-01
3.301062E-01
2.510607E-01
1.619162E-01
8.610289E-02
4.364324E-02
-3.560669E-02
-5.671508E-02
-9.460843E-02
1.258705E-01
2.162934E-01
3.220652E-01
4.568393E-01
5.663167E-01
7.362148E-01
6.616046E-01
8.165619E-01
4.636729E-02
-2.286369E-02
8.657265E-01
8.959989E-01
-9.194554E-02
7.831678E-01
7.011814E-01
7.903510E-01
6.283156E-01
5.663167E-01
7.739729E-01
4.239920E-01
3.589782E-01
2.621468E-01
1.687018E-01
8.913216E-02
1.886442E-02
-4.768419E-02
-9.460843E-02
-1.177614E-01
1.289677E-01
1.915161E-01
3.477925E-01
5.216911E-01
4.175527E-01
6.283156E-01
7.095952E-01
7.918463E-01
8.623984E-01
2.756126E-02
-4.724140E-02
9.268022E-01
-1.173968E-01
8.165619E-01
7.362148E-01
8.270732E-01
6.616046E-01
5.663167E-01
8.260141E-01
4.568393E-01
3.220652E-01
2.162934E-01
1.258705E-01
4.636729E-02
-2.286369E-02
-9.194554E-02
-1.177614E-01
-1.635484E-01
7.342333E-02
2.028723E-01
3.230171E-01
5.343570E-01
4.321574E-01
6.412729E-01
7.362148E-01
7.918463E-01
8.924366E-01
-2.431933E-02
-9.751316E-02
9.515698E-01
9.265679E-01
-1.653704E-01
8.623984E-01
7.918463E-01
7.095952E-01
8.657265E-01
6.283156E-01
5.216911E-01
8.712336E-01
4.175527E-01
3.477925E-01
1.915161E-01
1.289677E-01
2.756126E-02
-4.724140E-02
-1.173968E-01
-1.635484E-01
-2.041465E-01
7.633176E-02
2.627927E-01
1.432323E-01
3.778231E-01
4.841098E-01
5.919398E-01
7.011814E-01
8.165619E-01
8.924366E-01
-7.010486E-02
-1.206649E-01
9.711601E-01
9.438746E-01
-2.112081E-01
8.924366E-01
7.918463E-01
7.362148E-01
8.959989E-01
6.412729E-01
5.343570E-01
4.321574E-01
3.230171E-01
2.028723E-01
7.342333E-02
-2.431933E-02
-9.751316E-02
-1.653704E-01
-2.041465E-01
-2.559782E-01
3.054864E-02
2.511550E-01
1.369243E-01
3.683594E-01
4.946309E-01
5.671678E-01
7.234188E-01
8.623984E-01
7.831678E-01
9.265679E-01
-8.197155E-02
-1.863862E-01
9.636992E-01
9.855701E-01
-2.612178E-01
8.924366E-01
9.265679E-01
8.165619E-01
7.011814E-01
9.268022E-01
5.919398E-01
4.841098E-01
3.778231E-01
2.627927E-01
1.432323E-01
7.633176E-02
-7.010486E-02
-1.206649E-01
-2.112081E-01
-2.559782E-01
-3.060370E-01
6.981445E-02
-3.610707E-02
1.849266E-01
3.019158E-01
4.332148E-01
5.820129E-01
6.986528E-01
8.657265E-01
7.903510E-01
9.268022E-01
-1.528873E-01
-2.067420E-01
9.711601E-01
9.855701E-01
-3.210427E-01
9.265679E-01
8.623984E-01
9.438746E-01
7.831678E-01
7.234188E-01
9.515698E-01
5.671678E-01
4.946309E-01
3.683594E-01
2.511550E-01
1.369243E-01
3.054864E-02
-8.197155E-02
-1.863862E-01
-2.612178E-01
-3.060370E-01
-3.519152E-01
3.936595E-02
-7.028034E-02
1.777414E-01
2.561368E-01
4.442514E-01
6.419275E-01
5.205125E-01
7.434548E-01
8.270732E-01
8.959989E-01
9.515698E-01
-1.791506E-01
-2.665650E-01
-3.543284E-01
9.268022E-01
8.657265E-01
9.636992E-01
7.903510E-01
6.986528E-01
9.711601E-01
5.820129E-01
4.332148E-01
3.019158E-01
1.849266E-01
6.981445E-02
-3.610707E-02
-1.528873E-01
-2.067420E-01
-3.210427E-01
-3.519152E-01
-4.178084E-01
9.929052E-02
-3.407313E-02
-1.424081E-01
2.588441E-01
3.984786E-01
6.284248E-01
5.164564E-01
7.281358E-01
8.260141E-01
8.712336E-01
-2.488200E-01
-3.295045E-01
-4.257247E-01
9.515698E-01
8.959989E-01
8.270732E-01
9.711601E-01
7.434548E-01
6.419275E-01
9.855701E-01
5.205125E-01
4.442514E-01
2.561368E-01
1.777414E-01
3.936595E-02
-7.028034E-02
-1.791506E-01
-2.665650E-01
-3.543284E-01
-4.178084E-01
-4.583322E-01
9.744130E-02
-9.389192E-02
-1.662087E-01
3.237057E-01
1.785994E-01
4.471107E-01
5.644541E-01
6.698311E-01
7.739729E-01
-2.956206E-01
-3.810137E-01
-4.679478E-01
8.712336E-01
8.260141E-01
9.855701E-01
7.281358E-01
6.284248E-01
5.164564E-01
3.984786E-01
2.588441E-01
9.929052E-02
-3.407313E-02
-1.424081E-01
-2.488200E-01
-3.295045E-01
-4.257247E-01
-4.583322E-01
-5.230897E-01
3.762875E-02
-1.037373E-01
-2.497519E-01
2.954210E-01
1.639174E-01
4.185641E-01
5.550123E-01
6.240477E-01
-3.648748E-01
-4.480607E-01
-5.295706E-01
7.739729E-01
6.698311E-01
5.644541E-01
4.471107E-01
3.237057E-01
1.785994E-01
9.744130E-02
-9.389192E-02
-1.662087E-01
-2.956206E-01
-3.810137E-01
-4.679478E-01
-5.230897E-01
-5.727304E-01
8.268226E-02
-4.380652E-02
-1.905101E-01
-2.642078E-01
2.158775E-01
3.416474E-01
4.784680E-01
-4.296288E-01
-4.848561E-01
-5.856022E-01
6.240477E-01
5.550123E-01
4.185641E-01
2.954210E-01
1.639174E-01
3.762875E-02
-1.037373E-01
-2.497519E-01
-3.648748E-01
-4.480607E-01
-5.295706E-01
-5.727304E-01
-6.337378E-01
4.525336E-02
-8.256884E-02
-2.135845E-01
-3.289555E-01
1.994886E-01
2.818196E-01
-4.505304E-01
-5.607748E-01
-6.401287E-01
4.784680E-01
3.416474E-01
2.158775E-01
8.268226E-02
-4.380652E-02
-1.905101E-01
-2.642078E-01
-4.296288E-01
-4.848561E-01
-5.856022E-01
-6.337378E-01
-6.854972E-01
1.100996E-01
-3.856247E-02
-1.655741E-01
-2.943416E-01
-4.046555E-01
-5.306224E-01
-5.856395E-01
-6.999636E-01
2.818196E-01
1.994886E-01
4.525336E-02
-8.256884E-02
-2.135845E-01
-3.289555E-01
-4.505304E-01
-5.607748E-01
-6.401287E-01
-6.854972E-01
-7.296910E-01
-1.033255E-01
-1.864156E-01
-3.349555E-01
-4.479963E-01
-5.585787E-01
-6.454683E-01
-7.287443E-01
1.100996E-01
-3.856247E-02
-1.655741E-01
-2.943416E-01
-4.046555E-01
-5.306224E-01
-5.856395E-01
-6.999636E-01
-7.296910E-01
-7.864307E-01
-2.750399E-01
-4.129102E-01
-5.218274E-01
-6.265652E-01
-7.039109E-01
-7.899673E-01
-1.033255E-01
-1.864156E-01
-3.349555E-01
-4.479963E-01
-5.585787E-01
-6.454683E-01
-7.287443E-01
-7.864307E-01
-8.179263E-01
-4.727498E-01
-5.439499E-01
-6.641836E-01
-7.452366E-01
-8.185559E-01
-2.750399E-01
-4.129102E-01
-5.218274E-01
-6.265652E-01
-7.039109E-01
-7.899673E-01
-8.179263E-01
-8.637375E-01
-6.183196E-01
-7.244124E-01
-7.986586E-01
-8.634291E-01
-4.727498E-01
-5.439499E-01
-6.641836E-01
-7.452366E-01
-8.185559E-01
-8.637375E-01
-8.960306E-01
-7.702231E-01
-8.186979E-01
-8.923351E-01
-6.183196E-01
-7.244124E-01
-7.986586E-01
-8.634291E-01
-8.960306E-01
-9.290694E-01
-8.675012E-01
-9.256823E-01
-7.702231E-01
-8.186979E-01
-8.923351E-01
-9.290694E-01
-9.539706E-01
-9.505159E-01
-8.675012E-01
-9.256823E-01
-9.539706E-01
-9.689022E-01
-9.505159E-01
-9.689022E-01
-9.848157E-01
-9.848157E-01
