# vtk DataFile Version 2.0
Grille
ASCII
DATASET POLYDATA
POINTS 481 float
0.000000E+00 8.750000E-01 -6.760244E-01
6.250000E-02 8.750000E-01 -6.616939E-01
1.250000E-01 8.750000E-01 -6.244912E-01
1.250000E-01 9.375000E-01 -6.616939E-01
1.250000E-01 1.000000E+00 -6.760244E-01
6.250000E-02 1.000000E+00 -7.163158E-01
0.000000E+00 1.000000E+00 -7.321630E-01
0.000000E+00 9.375000E-01 -7.163158E-01
3.750000E-02 9.125000E-01 -6.971603E-01
8.125000E-02 9.187500E-01 -6.834737E-01
8.750000E-02 9.625000E-01 -6.971603E-01
4.375000E-02 9.562500E-01 -7.164643E-01
1.875000E-01 8.750000E-01 -5.609317E-01
2.500000E-01 8.750000E-01 -4.777842E-01
2.500000E-01 9.375000E-01 -5.063105E-01
2.500000E-01 1.000000E+00 -5.171933E-01
1.875000E-01 1.000000E+00 -6.070714E-01
1.625000E-01 9.125000E-01 -6.124442E-01
2.062500E-01 9.187500E-01 -5.629952E-01
2.125000E-01 9.625000E-01 -5.686804E-01
1.687500E-01 9.562500E-01 -6.238123E-01
0.000000E+00 7.500000E-01 -5.171933E-01
6.250000E-02 7.500000E-01 -5.063105E-01
1.250000E-01 7.500000E-01 -4.777842E-01
1.250000E-01 8.125000E-01 -5.609317E-01
0.000000E+00 8.125000E-01 -6.070714E-01
3.750000E-02 7.875000E-01 -5.686804E-01
8.125000E-02 7.937500E-01 -5.629952E-01
8.750000E-02 8.375000E-01 -6.124442E-01
4.375000E-02 8.312500E-01 -6.238123E-01
1.875000E-01 7.500000E-01 -4.293248E-01
2.500000E-01 7.500000E-01 -3.655061E-01
2.500000E-01 8.125000E-01 -4.293248E-01
1.625000E-01 7.875000E-01 -4.996914E-01
2.062500E-01 7.937500E-01 -4.637278E-01
2.125000E-01 8.375000E-01 -4.996914E-01
1.687500E-01 8.312500E-01 -5.431691E-01
3.125000E-01 8.750000E-01 -3.747168E-01
3.750000E-01 8.750000E-01 -2.582879E-01
3.750000E-01 9.375000E-01 -2.738148E-01
3.750000E-01 1.000000E+00 -2.796031E-01
3.125000E-01 1.000000E+00 -4.054323E-01
2.875000E-01 9.125000E-01 -4.344500E-01
3.312500E-01 9.187500E-01 -3.567742E-01
3.375000E-01 9.625000E-01 -3.536161E-01
2.937500E-01 9.562500E-01 -4.362062E-01
4.375000E-01 8.750000E-01 -1.314022E-01
5.000000E-01 8.750000E-01 5.852528E-04
5.000000E-01 9.375000E-01 4.157995E-04
5.000000E-01 1.000000E+00 6.013883E-04
4.375000E-01 1.000000E+00 -1.420305E-01
4.125000E-01 9.125000E-01 -1.902711E-01
4.562500E-01 9.187500E-01 -9.618989E-02
4.625000E-01 9.625000E-01 -8.467290E-02
4.187500E-01 9.562500E-01 -1.821538E-01
3.125000E-01 7.500000E-01 -2.868914E-01
3.750000E-01 7.500000E-01 -1.975070E-01
3.750000E-01 8.125000E-01 -2.322908E-01
2.875000E-01 7.875000E-01 -3.545425E-01
3.312500E-01 7.937500E-01 -2.937862E-01
3.375000E-01 8.375000E-01 -3.108008E-01
2.937500E-01 8.312500E-01 -3.797599E-01
4.375000E-01 7.500000E-01 -1.007109E-01
5.000000E-01 7.500000E-01 6.284244E-04
5.000000E-01 8.125000E-01 1.687670E-04
4.125000E-01 7.875000E-01 -1.553502E-01
4.562500E-01 7.937500E-01 -7.905376E-02
4.625000E-01 8.375000E-01 -7.453501E-02
4.187500E-01 8.312500E-01 -1.584755E-01
0.000000E+00 6.250000E-01 -2.796031E-01
6.250000E-02 6.250000E-01 -2.738148E-01
1.250000E-01 6.250000E-01 -2.582879E-01
1.250000E-01 6.875000E-01 -3.747168E-01
0.000000E+00 6.875000E-01 -4.054323E-01
3.750000E-02 6.625000E-01 -3.536161E-01
8.125000E-02 6.687500E-01 -3.567742E-01
8.750000E-02 7.125000E-01 -4.344500E-01
4.375000E-02 7.062500E-01 -4.362062E-01
1.875000E-01 6.250000E-01 -2.322908E-01
2.500000E-01 6.250000E-01 -1.975070E-01
2.500000E-01 6.875000E-01 -2.868914E-01
1.625000E-01 6.625000E-01 -3.108008E-01
2.062500E-01 6.687500E-01 -2.937862E-01
2.125000E-01 7.125000E-01 -3.545425E-01
1.687500E-01 7.062500E-01 -3.797599E-01
0.000000E+00 5.000000E-01 6.013883E-04
6.250000E-02 5.000000E-01 4.157995E-04
1.250000E-01 5.000000E-01 5.852528E-04
1.250000E-01 5.625000E-01 -1.314022E-01
0.000000E+00 5.625000E-01 -1.420305E-01
3.750000E-02 5.375000E-01 -8.467290E-02
8.125000E-02 5.437500E-01 -9.618989E-02
8.750000E-02 5.875000E-01 -1.902711E-01
4.375000E-02 5.812500E-01 -1.821538E-01
1.875000E-01 5.000000E-01 1.687670E-04
2.500000E-01 5.000000E-01 6.284244E-04
2.500000E-01 5.625000E-01 -1.007109E-01
1.625000E-01 5.375000E-01 -7.453501E-02
2.062500E-01 5.437500E-01 -7.905376E-02
2.125000E-01 5.875000E-01 -1.553502E-01
1.687500E-01 5.812500E-01 -1.584755E-01
3.125000E-01 6.250000E-01 -1.553073E-01
3.750000E-01 6.250000E-01 -1.065717E-01
3.750000E-01 6.875000E-01 -1.553073E-01
2.875000E-01 6.625000E-01 -2.205746E-01
3.312500E-01 6.687500E-01 -1.859834E-01
3.375000E-01 7.125000E-01 -2.205746E-01
2.937500E-01 7.062500E-01 -2.654104E-01
4.375000E-01 6.250000E-01 -5.459976E-02
5.000000E-01 6.250000E-01 6.642992E-04
5.000000E-01 6.875000E-01 -6.478238E-06
4.125000E-01 6.625000E-01 -9.668792E-02
4.562500E-01 6.687500E-01 -4.979004E-02
4.625000E-01 7.125000E-01 -5.295368E-02
4.187500E-01 7.062500E-01 -1.105784E-01
3.125000E-01 5.000000E-01 -6.478238E-06
3.750000E-01 5.000000E-01 6.642992E-04
3.750000E-01 5.625000E-01 -5.459976E-02
2.875000E-01 5.375000E-01 -5.295368E-02
3.312500E-01 5.437500E-01 -4.979004E-02
3.375000E-01 5.875000E-01 -9.668792E-02
2.937500E-01 5.812500E-01 -1.105784E-01
4.375000E-01 5.000000E-01 -9.795342E-05
5.000000E-01 5.000000E-01 6.779837E-04
5.000000E-01 5.625000E-01 -9.795342E-05
4.125000E-01 5.375000E-01 -2.322605E-02
4.562500E-01 5.437500E-01 -1.286506E-02
4.625000E-01 5.875000E-01 -2.322605E-02
4.187500E-01 5.812500E-01 -4.576354E-02
5.625000E-01 8.750000E-01 1.319735E-01
6.250000E-01 8.750000E-01 2.594260E-01
6.250000E-01 9.375000E-01 2.746365E-01
6.250000E-01 1.000000E+00 2.807665E-01
5.625000E-01 1.000000E+00 1.430453E-01
5.375000E-01 9.125000E-01 8.292788E-02
5.812500E-01 9.187500E-01 1.790922E-01
5.875000E-01 9.625000E-01 1.972133E-01
5.437500E-01 9.562500E-01 9.968096E-02
6.875000E-01 8.750000E-01 3.753136E-01
7.500000E-01 8.750000E-01 4.788262E-01
7.500000E-01 9.375000E-01 5.070955E-01
7.500000E-01 1.000000E+00 5.182348E-01
6.875000E-01 1.000000E+00 4.063950E-01
6.625000E-01 9.125000E-01 3.435561E-01
7.062500E-01 9.187500E-01 4.271620E-01
7.125000E-01 9.625000E-01 4.491261E-01
6.687500E-01 9.562500E-01 3.663925E-01
5.625000E-01 7.500000E-01 1.008681E-01
6.250000E-01 7.500000E-01 1.987340E-01
6.250000E-01 8.125000E-01 2.326638E-01
5.375000E-01 7.875000E-01 6.755618E-02
5.812500E-01 7.937500E-01 1.477765E-01
5.875000E-01 8.375000E-01 1.731373E-01
5.437500E-01 8.312500E-01 8.699491E-02
6.875000E-01 7.500000E-01 2.871570E-01
7.500000E-01 7.500000E-01 3.666517E-01
7.500000E-01 8.125000E-01 4.297994E-01
6.625000E-01 7.875000E-01 2.802409E-01
7.062500E-01 7.937500E-01 3.521720E-01
7.125000E-01 8.375000E-01 3.945101E-01
6.687500E-01 8.312500E-01 3.192809E-01
8.125000E-01 8.750000E-01 5.615683E-01
8.750000E-01 8.750000E-01 6.253801E-01
8.750000E-01 9.375000E-01 6.623852E-01
8.750000E-01 1.000000E+00 6.768274E-01
8.125000E-01 1.000000E+00 6.079141E-01
7.875000E-01 9.125000E-01 5.519298E-01
8.312500E-01 9.187500E-01 6.102434E-01
8.375000E-01 9.625000E-01 6.326994E-01
7.937500E-01 9.562500E-01 5.773678E-01
9.375000E-01 8.750000E-01 6.623852E-01
1.000000E+00 8.750000E-01 6.768274E-01
1.000000E+00 9.375000E-01 7.168613E-01
1.000000E+00 1.000000E+00 7.321458E-01
9.375000E-01 1.000000E+00 7.168613E-01
9.125000E-01 9.125000E-01 6.763124E-01
9.562500E-01 9.187500E-01 7.004510E-01
9.625000E-01 9.625000E-01 7.199159E-01
9.187500E-01 9.562500E-01 7.004510E-01
8.125000E-01 7.500000E-01 4.297994E-01
8.750000E-01 7.500000E-01 4.788262E-01
8.750000E-01 8.125000E-01 5.615683E-01
7.875000E-01 7.875000E-01 4.503265E-01
8.312500E-01 7.937500E-01 5.030186E-01
8.375000E-01 8.375000E-01 5.558814E-01
7.937500E-01 8.312500E-01 5.030186E-01
9.375000E-01 7.500000E-01 5.070955E-01
1.000000E+00 7.500000E-01 5.182348E-01
1.000000E+00 8.125000E-01 6.079141E-01
9.125000E-01 7.875000E-01 5.519298E-01
9.562500E-01 7.937500E-01 5.773678E-01
9.625000E-01 8.375000E-01 6.326994E-01
9.187500E-01 8.312500E-01 6.102434E-01
5.625000E-01 6.250000E-01 5.449401E-02
6.250000E-01 6.250000E-01 1.078724E-01
6.250000E-01 6.875000E-01 1.553654E-01
5.375000E-01 6.625000E-01 4.199140E-02
5.812500E-01 6.687500E-01 9.405480E-02
5.875000E-01 7.125000E-01 1.227976E-01
5.437500E-01 7.062500E-01 6.115805E-02
6.875000E-01 6.250000E-01 1.553654E-01
7.500000E-01 6.250000E-01 1.987340E-01
7.500000E-01 6.875000E-01 2.871570E-01
6.625000E-01 6.625000E-01 1.743496E-01
7.062500E-01 6.687500E-01 2.236528E-01
7.125000E-01 7.125000E-01 2.799237E-01
6.687500E-01 7.062500E-01 2.236528E-01
5.625000E-01 5.000000E-01 -9.795342E-05
6.250000E-01 5.000000E-01 6.642992E-04
6.250000E-01 5.625000E-01 5.449401E-02
5.375000E-01 5.375000E-01 1.011466E-02
5.812500E-01 5.437500E-01 2.609440E-02
5.875000E-01 5.875000E-01 5.384661E-02
5.437500E-01 5.812500E-01 2.609440E-02
6.875000E-01 5.000000E-01 -6.478238E-06
7.500000E-01 5.000000E-01 6.284244E-04
7.500000E-01 5.625000E-01 1.008681E-01
6.625000E-01 5.375000E-01 4.199140E-02
7.062500E-01 5.437500E-01 6.115805E-02
7.125000E-01 5.875000E-01 1.227976E-01
6.687500E-01 5.812500E-01 9.405480E-02
8.125000E-01 6.250000E-01 2.326638E-01
8.750000E-01 6.250000E-01 2.594260E-01
8.750000E-01 6.875000E-01 3.753136E-01
7.875000E-01 6.625000E-01 2.802409E-01
8.312500E-01 6.687500E-01 3.192809E-01
8.375000E-01 7.125000E-01 3.945101E-01
7.937500E-01 7.062500E-01 3.521720E-01
9.375000E-01 6.250000E-01 2.746365E-01
1.000000E+00 6.250000E-01 2.807665E-01
1.000000E+00 6.875000E-01 4.063950E-01
9.125000E-01 6.625000E-01 3.435561E-01
9.562500E-01 6.687500E-01 3.663925E-01
9.625000E-01 7.125000E-01 4.491261E-01
9.187500E-01 7.062500E-01 4.271620E-01
8.125000E-01 5.000000E-01 1.687670E-04
8.750000E-01 5.000000E-01 5.852528E-04
8.750000E-01 5.625000E-01 1.319735E-01
7.875000E-01 5.375000E-01 6.755618E-02
8.312500E-01 5.437500E-01 8.699491E-02
8.375000E-01 5.875000E-01 1.731373E-01
7.937500E-01 5.812500E-01 1.477765E-01
9.375000E-01 5.000000E-01 4.157995E-04
1.000000E+00 5.000000E-01 6.013883E-04
1.000000E+00 5.625000E-01 1.430453E-01
9.125000E-01 5.375000E-01 8.292788E-02
9.562500E-01 5.437500E-01 9.968096E-02
9.625000E-01 5.875000E-01 1.972133E-01
9.187500E-01 5.812500E-01 1.790922E-01
0.000000E+00 3.750000E-01 2.807665E-01
6.250000E-02 3.750000E-01 2.746365E-01
[...]
CELL_DATA 896
SCALARS sol float 1
LOOKUP_TABLE default
-6.782929E-01
-6.807760E-01
-6.965002E-01
-6.538435E-01
-6.990328E-01
-6.565529E-01
-7.099802E-01
-6.356360E-01
-6.326501E-01
-6.990328E-01
-6.565529E-01
-6.328764E-01
-7.216477E-01
-5.998547E-01
-5.997506E-01
-7.099802E-01
-6.807760E-01
-6.328764E-01
-5.992890E-01
-7.216477E-01
-5.851626E-01
-5.643150E-01
-5.787904E-01
-6.965002E-01
-6.782929E-01
-5.992890E-01
-6.326501E-01
-5.761973E-01
-5.459954E-01
-5.307280E-01
-5.339037E-01
-6.538435E-01
-5.787904E-01
-5.761973E-01
-5.997506E-01
-5.345974E-01
-5.156966E-01
-4.865700E-01
-5.128024E-01
-6.356360E-01
-5.339037E-01
-5.345974E-01
-5.851626E-01
-5.021961E-01
-4.728482E-01
-4.529439E-01
-4.589889E-01
-4.689335E-01
-5.998547E-01
-5.156966E-01
-5.128024E-01
-5.021961E-01
-5.459954E-01
-4.642480E-01
-4.289837E-01
-3.984182E-01
-4.091435E-01
-4.289563E-01
-5.643150E-01
-4.728482E-01
-4.689335E-01
-4.642480E-01
-5.307280E-01
-4.195196E-01
-3.886470E-01
-4.107536E-01
-3.821988E-01
-3.462172E-01
-3.878757E-01
-4.289837E-01
-4.589889E-01
-4.289563E-01
-4.195196E-01
-4.865700E-01
-3.831245E-01
-3.299263E-01
-3.550925E-01
-3.280684E-01
-3.023447E-01
-3.426962E-01
-3.886470E-01
-4.107536E-01
-4.091435E-01
-3.878757E-01
-3.831245E-01
-4.529439E-01
-3.356467E-01
-2.962923E-01
-3.146018E-01
-3.281156E-01
-2.451906E-01
-3.117400E-01
-3.299263E-01
-3.550925E-01
-3.821988E-01
-3.426962E-01
-3.356467E-01
-3.984182E-01
-3.059360E-01
-2.407913E-01
-2.671265E-01
-2.789593E-01
-2.012625E-01
-2.154132E-01
-2.593949E-01
-2.962923E-01
-3.146018E-01
-3.281156E-01
-3.280684E-01
-3.117400E-01
-3.059360E-01
-3.462172E-01
-2.576255E-01
-1.933204E-01
-2.163514E-01
-2.411947E-01
-1.362857E-01
-1.562049E-01
-2.349910E-01
-2.407913E-01
-2.671265E-01
-2.789593E-01
-3.023447E-01
-2.593949E-01
-2.576255E-01
-2.239895E-01
-1.827219E-01
-1.392877E-01
-1.820389E-01
-1.950493E-01
-1.210055E-01
-7.536735E-02
-1.911297E-01
-1.933204E-01
-2.154132E-01
-2.163514E-01
-2.411947E-01
-2.451906E-01
-2.349910E-01
-2.239895E-01
-1.872884E-01
-1.214709E-01
-7.566894E-02
-1.309598E-01
-1.511894E-01
-6.014900E-02
-2.788524E-02
-1.544642E-01
-1.392877E-01
-1.827219E-01
-1.562049E-01
-1.820389E-01
-1.950493E-01
-2.012625E-01
-1.911297E-01
-1.872884E-01
-1.492875E-01
-1.040214E-01
-6.845065E-02
-3.172961E-02
-1.117050E-01
-1.362654E-01
3.356605E-02
-1.208579E-01
-7.566894E-02
-1.214709E-01
-1.210055E-01
-1.309598E-01
-1.511894E-01
-1.362857E-01
-1.544642E-01
-1.492875E-01
-1.195223E-01
-5.114000E-02
-2.459366E-02
2.797631E-02
-5.971209E-02
-8.808100E-02
8.110921E-02
6.100821E-02
-8.568545E-02
-3.172961E-02
-6.845065E-02
-1.040214E-01
-6.014900E-02
-1.117050E-01
-1.362654E-01
-7.536735E-02
-1.208579E-01
-1.195223E-01
-8.595313E-02
-2.608552E-02
2.924964E-02
7.182886E-02
-5.101206E-02
-7.110737E-02
1.466465E-01
1.205670E-01
-6.702591E-02
2.797631E-02
-2.459366E-02
-5.114000E-02
-2.788524E-02
-5.971209E-02
-8.808100E-02
-8.568545E-02
-8.595313E-02
-6.897834E-02
2.278446E-02
7.318454E-02
5.157328E-02
1.313312E-01
-1.744391E-02
-3.425007E-02
1.586622E-01
2.070084E-01
-3.457516E-02
7.182886E-02
6.100821E-02
2.924964E-02
-2.608552E-02
3.356605E-02
-5.101206E-02
-7.110737E-02
-6.702591E-02
-6.897834E-02
-4.119645E-02
5.635089E-02
1.307019E-01
1.007759E-01
1.901639E-01
2.059333E-02
-1.637741E-02
2.169807E-01
2.508721E-01
-2.572050E-02
1.313312E-01
7.318454E-02
1.205670E-01
5.157328E-02
2.278446E-02
8.110921E-02
-1.744391E-02
-3.425007E-02
-3.457516E-02
-4.119645E-02
-2.728488E-02
5.421818E-02
1.054003E-01
1.359696E-01
1.881789E-01
2.377182E-01
3.438099E-02
1.421641E-02
3.072652E-01
-7.553234E-03
1.901639E-01
1.307019E-01
1.586622E-01
1.007759E-01
5.635089E-02
1.466465E-01
2.059333E-02
-1.637741E-02
-2.572050E-02
-2.728488E-02
-1.206302E-02
9.494125E-02
1.491262E-01
1.845259E-01
2.217424E-01
2.925395E-01
6.573475E-02
3.238324E-02
3.511847E-01
3.281950E-01
8.886915E-03
2.377182E-01
1.881789E-01
1.359696E-01
2.169807E-01
1.054003E-01
5.421818E-02
2.070084E-01
3.438099E-02
1.421641E-02
-7.553234E-03
-1.206302E-02
-4.095011E-03
9.267016E-02
1.407999E-01
1.930581E-01
2.704569E-01
3.260986E-01
6.351340E-02
2.708424E-02
4.073045E-01
3.790368E-01
1.203704E-02
2.925395E-01
2.217424E-01
1.845259E-01
2.508721E-01
1.491262E-01
9.494125E-02
6.573475E-02
3.238324E-02
8.886915E-03
-4.095011E-03
3.564898E-03
1.240726E-01
1.589657E-01
2.372129E-01
3.180068E-01
2.773952E-01
3.820106E-01
8.547373E-02
4.481167E-02
4.142269E-01
4.579186E-01
2.076782E-02
3.260986E-01
3.281950E-01
2.704569E-01
1.930581E-01
3.072652E-01
1.407999E-01
9.267016E-02
6.351340E-02
2.708424E-02
1.203704E-02
3.564898E-03
3.564898E-03
1.190975E-01
1.925841E-01
2.553773E-01
3.630348E-01
3.172312E-01
4.271006E-01
7.207100E-02
3.534513E-02
4.611279E-01
4.914855E-01
1.203704E-02
3.820106E-01
3.180068E-01
3.790368E-01
2.773952E-01
2.372129E-01
3.511847E-01
1.589657E-01
1.240726E-01
8.547373E-02
4.481167E-02
2.076782E-02
3.564898E-03
-4.095011E-03
1.458625E-01
2.365146E-01
1.844560E-01
3.065233E-01
3.553210E-01
4.162166E-01
4.710279E-01
7.207100E-02
4.481167E-02
5.342327E-01
8.886915E-03
4.271006E-01
3.630348E-01
4.142269E-01
3.172312E-01
2.553773E-01
4.073045E-01
1.925841E-01
1.190975E-01
7.207100E-02
3.534513E-02
1.203704E-02
-4.095011E-03
-1.206302E-02
1.458625E-01
2.635778E-01
2.072184E-01
3.353269E-01
3.921605E-01
4.343785E-01
5.126172E-01
8.547373E-02
2.708424E-02
5.678389E-01
5.454644E-01
-7.553234E-03
4.710279E-01
4.162166E-01
3.553210E-01
4.611279E-01
3.065233E-01
2.365146E-01
4.579186E-01
1.844560E-01
1.458625E-01
7.207100E-02
4.481167E-02
8.886915E-03
-1.206302E-02
-2.728488E-02
1.190975E-01
1.844560E-01
2.424098E-01
3.112441E-01
3.828744E-01
4.705481E-01
5.307748E-01
6.351340E-02
3.238324E-02
6.059938E-01
5.798470E-01
-2.572050E-02
5.126172E-01
4.343785E-01
3.921605E-01
4.914855E-01
3.353269E-01
2.635778E-01
2.072184E-01
1.458625E-01
8.547373E-02
2.708424E-02
-7.553234E-03
-2.728488E-02
-4.119645E-02
1.240726E-01
1.925841E-01
2.635778E-01
3.112441E-01
4.155925E-01
5.144710E-01
4.610482E-01
5.745805E-01
6.573475E-02
1.421641E-02
6.067702E-01
6.391470E-01
-3.457516E-02
5.307748E-01
5.454644E-01
4.705481E-01
3.828744E-01
5.342327E-01
3.112441E-01
2.424098E-01
1.844560E-01
1.190975E-01
6.351340E-02
3.238324E-02
-2.572050E-02
-4.119645E-02
-6.897834E-02
9.267016E-02
1.589657E-01
2.365146E-01
3.353269E-01
4.155925E-01
5.401561E-01
4.854546E-01
5.990640E-01
3.438099E-02
-1.637741E-02
6.351093E-01
6.573040E-01
-6.702591E-02
5.745805E-01
5.144710E-01
5.798470E-01
4.610482E-01
4.155925E-01
5.678389E-01
3.112441E-01
2.635778E-01
1.925841E-01
1.240726E-01
6.573475E-02
1.421641E-02
-3.457516E-02
-6.897834E-02
-8.595313E-02
9.494125E-02
1.407999E-01
2.553773E-01
3.828744E-01
3.065233E-01
4.610482E-01
5.206395E-01
5.809433E-01
6.326696E-01
2.059333E-02
-3.425007E-02
6.798879E-01
-8.568545E-02
5.990640E-01
5.401561E-01
6.067702E-01
4.854546E-01
4.155925E-01
6.059938E-01
3.353269E-01
2.365146E-01
1.589657E-01
9.267016E-02
3.438099E-02
-1.637741E-02
-6.702591E-02
-8.595313E-02
-1.195223E-01
5.421818E-02
1.491262E-01
2.372129E-01
3.921605E-01
3.172312E-01
4.705481E-01
5.401561E-01
5.809433E-01
6.546926E-01
-1.744391E-02
-7.110737E-02
6.980466E-01
6.797162E-01
-1.208579E-01
6.326696E-01
5.809433E-01
5.206395E-01
6.351093E-01
4.610482E-01
3.828744E-01
6.391470E-01
3.065233E-01
2.553773E-01
1.407999E-01
9.494125E-02
2.059333E-02
-3.425007E-02
-8.568545E-02
-1.195223E-01
-1.492875E-01
5.635089E-02
1.930581E-01
1.054003E-01
2.773952E-01
3.553210E-01
4.343785E-01
5.144710E-01
5.990640E-01
6.546926E-01
-5.101206E-02
-8.808100E-02
7.124094E-01
6.924048E-01
-1.544642E-01
6.546926E-01
5.809433E-01
5.401561E-01
6.573040E-01
4.705481E-01
3.921605E-01
3.172312E-01
2.372129E-01
1.491262E-01
5.421818E-02
-1.744391E-02
-7.110737E-02
-1.208579E-01
-1.492875E-01
-1.872884E-01
2.278446E-02
1.845259E-01
1.007759E-01
2.704569E-01
3.630348E-01
4.162166E-01
5.307748E-01
6.326696E-01
5.745805E-01
6.797162E-01
-5.971209E-02
-1.362654E-01
7.069393E-01
7.229743E-01
-1.911297E-01
6.546926E-01
6.797162E-01
5.990640E-01
5.144710E-01
6.798879E-01
4.343785E-01
3.553210E-01
2.773952E-01
1.930581E-01
1.054003E-01
5.635089E-02
-5.101206E-02
-8.808100E-02
-1.544642E-01
-1.872884E-01
-2.239895E-01
5.157328E-02
-2.608552E-02
1.359696E-01
2.217424E-01
3.180068E-01
4.271006E-01
5.126172E-01
6.351093E-01
5.798470E-01
6.798879E-01
-1.117050E-01
-1.511894E-01
7.124094E-01
7.229743E-01
-2.349910E-01
6.797162E-01
6.326696E-01
6.924048E-01
5.745805E-01
5.307748E-01
6.980466E-01
4.162166E-01
3.630348E-01
2.704569E-01
1.845259E-01
1.007759E-01
2.278446E-02
-5.971209E-02
-1.362654E-01
-1.911297E-01
-2.239895E-01
-2.576255E-01
2.924964E-02
-5.114000E-02
1.307019E-01
1.881789E-01
3.260986E-01
4.710279E-01
3.820106E-01
5.454644E-01
6.067702E-01
6.573040E-01
6.980466E-01
-1.309598E-01
-1.950493E-01
-2.593949E-01
6.798879E-01
6.351093E-01
7.069393E-01
5.798470E-01
5.126172E-01
7.124094E-01
4.271006E-01
3.180068E-01
2.217424E-01
1.359696E-01
5.157328E-02
-2.608552E-02
-1.117050E-01
-1.511894E-01
-2.349910E-01
-2.576255E-01
-3.059360E-01
7.318454E-02
-2.459366E-02
-1.040214E-01
1.901639E-01
2.925395E-01
4.611279E-01
3.790368E-01
5.342327E-01
6.059938E-01
6.391470E-01
-1.820389E-01
-2.411947E-01
-3.117400E-01
6.980466E-01
6.573040E-01
6.067702E-01
7.124094E-01
5.454644E-01
4.710279E-01
7.229743E-01
3.820106E-01
3.260986E-01
1.881789E-01
1.307019E-01
2.924964E-02
-5.114000E-02
-1.309598E-01
-1.950493E-01
-2.593949E-01
-3.059360E-01
-3.356467E-01
7.182886E-02
-6.845065E-02
-1.214709E-01
2.377182E-01
1.313312E-01
3.281950E-01
4.142269E-01
4.914855E-01
5.678389E-01
-2.163514E-01
-2.789593E-01
-3.426962E-01
6.391470E-01
6.059938E-01
7.229743E-01
5.342327E-01
4.611279E-01
3.790368E-01
2.925395E-01
1.901639E-01
7.318454E-02
-2.459366E-02
-1.040214E-01
-1.820389E-01
-2.411947E-01
-3.117400E-01
-3.356467E-01
-3.831245E-01
2.797631E-02
-7.566894E-02
-1.827219E-01
2.169807E-01
1.205670E-01
3.072652E-01
4.073045E-01
4.579186E-01
-2.671265E-01
-3.281156E-01
-3.878757E-01
5.678389E-01
4.914855E-01
4.142269E-01
3.281950E-01
2.377182E-01
1.313312E-01
7.182886E-02
-6.845065E-02
-1.214709E-01
-2.163514E-01
-2.789593E-01
-3.426962E-01
-3.831245E-01
-4.195196E-01
6.100821E-02
-3.172961E-02
-1.392877E-01
-1.933204E-01
1.586622E-01
2.508721E-01
3.511847E-01
-3.146018E-01
-3.550925E-01
-4.289563E-01
4.579186E-01
4.073045E-01
3.072652E-01
2.169807E-01
1.205670E-01
2.797631E-02
-7.566894E-02
-1.827219E-01
-2.671265E-01
-3.281156E-01
-3.878757E-01
-4.195196E-01
-4.642480E-01
3.356605E-02
-6.014900E-02
-1.562049E-01
-2.407913E-01
1.466465E-01
2.070084E-01
-3.299263E-01
-4.107536E-01
-4.689335E-01
3.511847E-01
2.508721E-01
1.586622E-01
6.100821E-02
-3.172961E-02
-1.392877E-01
-1.933204E-01
-3.146018E-01
-3.550925E-01
-4.289563E-01
-4.642480E-01
-5.021961E-01
8.110921E-02
-2.788524E-02
-1.210055E-01
-2.154132E-01
-2.962923E-01
-3.886470E-01
-4.289837E-01
-5.128024E-01
2.070084E-01
1.466465E-01
3.356605E-02
-6.014900E-02
-1.562049E-01
-2.407913E-01
-3.299263E-01
-4.107536E-01
-4.689335E-01
-5.021961E-01
-5.345974E-01
-7.536735E-02
-1.362857E-01
-2.451906E-01
-3.280684E-01
-4.091435E-01
-4.728482E-01
-5.339037E-01
8.110921E-02
-2.788524E-02
-1.210055E-01
-2.154132E-01
-2.962923E-01
-3.886470E-01
-4.289837E-01
-5.128024E-01
-5.345974E-01
-5.761973E-01
-2.012625E-01
-3.023447E-01
-3.821988E-01
-4.589889E-01
-5.156966E-01
-5.787904E-01
-7.536735E-02
-1.362857E-01
-2.451906E-01
-3.280684E-01
-4.091435E-01
-4.728482E-01
-5.339037E-01
-5.761973E-01
-5.992890E-01
-3.462172E-01
-3.984182E-01
-4.865700E-01
-5.459954E-01
-5.997506E-01
-2.012625E-01
-3.023447E-01
-3.821988E-01
-4.589889E-01
-5.156966E-01
-5.787904E-01
-5.992890E-01
-6.328764E-01
-4.529439E-01
-5.307280E-01
-5.851626E-01
-6.326501E-01
-3.462172E-01
-3.984182E-01
-4.865700E-01
-5.459954E-01
-5.997506E-01
-6.328764E-01
-6.565529E-01
-5.643150E-01
-5.998547E-01
-6.538435E-01
-4.529439E-01
-5.307280E-01
-5.851626E-01
-6.326501E-01
-6.565529E-01
-6.807760E-01
-6.356360E-01
-6.782929E-01
-5.643150E-01
-5.998547E-01
-6.538435E-01
-6.807760E-01
-6.990328E-01
-6.965002E-01
-6.356360E-01
-6.782929E-01
-6.990328E-01
-7.099802E-01
-6.965002E-01
-7.099802E-01
-7.216477E-01
-7.216477E-01
