# vtk DataFile Version 2.0
Grille
ASCII
DATASET POLYDATA
POINTS 481 float
0.000000E+00 8.750000E-01 -9.199553E-01
6.250000E-02 8.750000E-01 -9.004660E-01
1.250000E-01 8.750000E-01 -8.498670E-01
1.250000E-01 9.375000E-01 -9.004660E-01
1.250000E-01 1.000000E+00 -9.199553E-01
6.250000E-02 1.000000E+00 -9.747560E-01
0.000000E+00 1.000000E+00 -9.963086E-01
0.000000E+00 9.375000E-01 -9.747560E-01
3.750000E-02 9.125000E-01 -9.487030E-01
8.125000E-02 9.187500E-01 -9.300880E-01
8.750000E-02 9.625000E-01 -9.487030E-01
4.375000E-02 9.562500E-01 -9.749582E-01
1.875000E-01 8.750000E-01 -7.634213E-01
2.500000E-01 8.750000E-01 -6.503334E-01
2.500000E-01 9.375000E-01 -6.891316E-01
2.500000E-01 1.000000E+00 -7.039315E-01
1.875000E-01 1.000000E+00 -8.261750E-01
1.625000E-01 9.125000E-01 -8.334826E-01
2.062500E-01 9.187500E-01 -7.662273E-01
2.125000E-01 9.625000E-01 -7.739596E-01
1.687500E-01 9.562500E-01 -8.489443E-01
0.000000E+00 7.500000E-01 -7.039315E-01
6.250000E-02 7.500000E-01 -6.891316E-01
1.250000E-01 7.500000E-01 -6.503334E-01
1.250000E-01 8.125000E-01 -7.634213E-01
0.000000E+00 8.125000E-01 -8.261750E-01
3.750000E-02 7.875000E-01 -7.739596E-01
8.125000E-02 7.937500E-01 -7.662273E-01
8.750000E-02 8.375000E-01 -8.334826E-01
4.375000E-02 8.312500E-01 -8.489443E-01
1.875000E-01 7.500000E-01 -5.844248E-01
2.500000E-01 7.500000E-01 -4.976256E-01
2.500000E-01 8.125000E-01 -5.844248E-01
1.625000E-01 7.875000E-01 -6.801295E-01
2.062500E-01 7.937500E-01 -6.312152E-01
2.125000E-01 8.375000E-01 -6.801295E-01
1.687500E-01 8.312500E-01 -7.392633E-01
3.125000E-01 8.750000E-01 -5.101533E-01
3.750000E-01 8.750000E-01 -3.517999E-01
3.750000E-01 9.375000E-01 -3.729178E-01
3.750000E-01 1.000000E+00 -3.807885E-01
3.125000E-01 1.000000E+00 -5.519287E-01
2.875000E-01 9.125000E-01 -5.913958E-01
3.312500E-01 9.187500E-01 -4.857491E-01
3.375000E-01 9.625000E-01 -4.814539E-01
2.937500E-01 9.562500E-01 -5.937844E-01
4.375000E-01 8.750000E-01 -1.792246E-01
5.000000E-01 8.750000E-01 2.894666E-04
5.000000E-01 9.375000E-01 5.924931E-05
5.000000E-01 1.000000E+00 3.133601E-04
4.375000E-01 1.000000E+00 -1.936799E-01
4.125000E-01 9.125000E-01 -2.592917E-01
4.562500E-01 9.187500E-01 -1.313322E-01
4.625000E-01 9.625000E-01 -1.156681E-01
4.187500E-01 9.562500E-01 -2.482515E-01
3.125000E-01 7.500000E-01 -3.907027E-01
3.750000E-01 7.500000E-01 -2.691321E-01
3.750000E-01 8.125000E-01 -3.164415E-01
2.875000E-01 7.875000E-01 -4.827145E-01
3.312500E-01 7.937500E-01 -4.000798E-01
3.375000E-01 8.375000E-01 -4.232219E-01
2.937500E-01 8.312500E-01 -5.170130E-01
4.375000E-01 7.500000E-01 -1.374810E-01
5.000000E-01 7.500000E-01 3.490075E-04
5.000000E-01 8.125000E-01 -2.765695E-04
4.125000E-01 7.875000E-01 -2.117958E-01
4.562500E-01 7.937500E-01 -1.080253E-01
4.625000E-01 8.375000E-01 -1.018800E-01
4.187500E-01 8.312500E-01 -2.160472E-01
0.000000E+00 6.250000E-01 -3.807885E-01
6.250000E-02 6.250000E-01 -3.729178E-01
1.250000E-01 6.250000E-01 -3.517999E-01
1.250000E-01 6.875000E-01 -5.101533E-01
0.000000E+00 6.875000E-01 -5.519287E-01
3.750000E-02 6.625000E-01 -4.814539E-01
8.125000E-02 6.687500E-01 -4.857491E-01
8.750000E-02 7.125000E-01 -5.913958E-01
4.375000E-02 7.062500E-01 -5.937844E-01
1.875000E-01 6.250000E-01 -3.164415E-01
2.500000E-01 6.250000E-01 -2.691321E-01
2.500000E-01 6.875000E-01 -3.907027E-01
1.625000E-01 6.625000E-01 -4.232219E-01
2.062500E-01 6.687500E-01 -4.000798E-01
2.125000E-01 7.125000E-01 -4.827145E-01
1.687500E-01 7.062500E-01 -5.170130E-01
0.000000E+00 5.000000E-01 3.133601E-04
6.250000E-02 5.000000E-01 5.924931E-05
1.250000E-01 5.000000E-01 2.894666E-04
1.250000E-01 5.625000E-01 -1.792246E-01
0.000000E+00 5.625000E-01 -1.936799E-01
3.750000E-02 5.375000E-01 -1.156681E-01
8.125000E-02 5.437500E-01 -1.313322E-01
8.750000E-02 5.875000E-01 -2.592917E-01
4.375000E-02 5.812500E-01 -2.482515E-01
1.875000E-01 5.000000E-01 -2.765695E-04
2.500000E-01 5.000000E-01 3.490075E-04
2.500000E-01 5.625000E-01 -1.374810E-01
1.625000E-01 5.375000E-01 -1.018800E-01
2.062500E-01 5.437500E-01 -1.080253E-01
2.125000E-01 5.875000E-01 -2.117958E-01
1.687500E-01 5.812500E-01 -2.160472E-01
3.125000E-01 6.250000E-01 -2.117365E-01
3.750000E-01 6.250000E-01 -1.454515E-01
3.750000E-01 6.875000E-01 -2.117365E-01
2.875000E-01 6.625000E-01 -3.005060E-01
3.312500E-01 6.687500E-01 -2.534581E-01
3.375000E-01 7.125000E-01 -3.005060E-01
2.937500E-01 7.062500E-01 -3.614873E-01
4.375000E-01 6.250000E-01 -7.476483E-02
5.000000E-01 6.250000E-01 3.988898E-04
5.000000E-01 6.875000E-01 -5.137506E-04
4.125000E-01 6.625000E-01 -1.320089E-01
4.562500E-01 6.687500E-01 -6.822319E-02
4.625000E-01 7.125000E-01 -7.252662E-02
4.187500E-01 7.062500E-01 -1.509019E-01
3.125000E-01 5.000000E-01 -5.137506E-04
3.750000E-01 5.000000E-01 3.988898E-04
3.750000E-01 5.625000E-01 -7.476483E-02
2.875000E-01 5.375000E-01 -7.252662E-02
3.312500E-01 5.437500E-01 -6.822319E-02
3.375000E-01 5.875000E-01 -1.320089E-01
2.937500E-01 5.812500E-01 -1.509019E-01
4.375000E-01 5.000000E-01 -6.372883E-04
5.000000E-01 5.000000E-01 4.179607E-04
5.000000E-01 5.625000E-01 -6.372883E-04
4.125000E-01 5.375000E-01 -3.209370E-02
4.562500E-01 5.437500E-01 -1.800158E-02
4.625000E-01 5.875000E-01 -3.209370E-02
4.187500E-01 5.812500E-01 -6.274709E-02
5.625000E-01 8.750000E-01 1.789887E-01
6.250000E-01 8.750000E-01 3.523346E-01
6.250000E-01 9.375000E-01 3.730227E-01
6.250000E-01 1.000000E+00 3.813614E-01
5.625000E-01 1.000000E+00 1.940475E-01
5.375000E-01 9.125000E-01 1.122821E-01
5.812500E-01 9.187500E-01 2.430748E-01
5.875000E-01 9.625000E-01 2.677212E-01
5.437500E-01 9.562500E-01 1.350677E-01
6.875000E-01 8.750000E-01 5.099519E-01
7.500000E-01 8.750000E-01 6.507373E-01
7.500000E-01 9.375000E-01 6.891868E-01
7.500000E-01 1.000000E+00 7.043379E-01
6.875000E-01 1.000000E+00 5.522255E-01
6.625000E-01 9.125000E-01 4.667586E-01
7.062500E-01 9.187500E-01 5.804706E-01
7.125000E-01 9.625000E-01 6.103440E-01
6.687500E-01 9.562500E-01 4.978181E-01
5.625000E-01 7.500000E-01 1.366836E-01
6.250000E-01 7.500000E-01 2.697891E-01
6.250000E-01 8.125000E-01 3.159363E-01
5.375000E-01 7.875000E-01 9.137581E-02
5.812500E-01 7.937500E-01 2.004830E-01
5.875000E-01 8.375000E-01 2.349755E-01
5.437500E-01 8.312500E-01 1.178136E-01
6.875000E-01 7.500000E-01 3.900520E-01
7.500000E-01 7.500000E-01 4.981709E-01
7.500000E-01 8.125000E-01 5.840572E-01
6.625000E-01 7.875000E-01 3.806448E-01
7.062500E-01 7.937500E-01 4.784777E-01
7.125000E-01 8.375000E-01 5.360611E-01
6.687500E-01 8.312500E-01 4.337423E-01
8.125000E-01 8.750000E-01 7.632742E-01
8.750000E-01 8.750000E-01 8.500633E-01
8.750000E-01 9.375000E-01 9.003943E-01
8.750000E-01 1.000000E+00 9.200371E-01
8.125000E-01 1.000000E+00 8.263088E-01
7.875000E-01 9.125000E-01 7.501647E-01
8.312500E-01 9.187500E-01 8.294769E-01
8.375000E-01 9.625000E-01 8.600193E-01
7.937500E-01 9.562500E-01 7.847628E-01
9.375000E-01 8.750000E-01 9.003943E-01
1.000000E+00 8.750000E-01 9.200371E-01
1.000000E+00 9.375000E-01 9.744868E-01
1.000000E+00 1.000000E+00 9.952748E-01
9.375000E-01 1.000000E+00 9.744868E-01
9.125000E-01 9.125000E-01 9.193363E-01
9.562500E-01 9.187500E-01 9.521672E-01
9.625000E-01 9.625000E-01 9.786415E-01
9.187500E-01 9.562500E-01 9.521672E-01
8.125000E-01 7.500000E-01 5.840572E-01
8.750000E-01 7.500000E-01 6.507373E-01
8.750000E-01 8.125000E-01 7.632742E-01
7.875000E-01 7.875000E-01 6.119754E-01
8.312500E-01 7.937500E-01 6.836414E-01
8.375000E-01 8.375000E-01 7.555398E-01
7.937500E-01 8.312500E-01 6.836414E-01
9.375000E-01 7.500000E-01 6.891868E-01
1.000000E+00 7.500000E-01 7.043379E-01
1.000000E+00 8.125000E-01 8.263088E-01
9.125000E-01 7.875000E-01 7.501647E-01
9.562500E-01 7.937500E-01 7.847628E-01
9.625000E-01 8.375000E-01 8.600193E-01
9.187500E-01 8.312500E-01 8.294769E-01
5.625000E-01 6.250000E-01 7.361197E-02
6.250000E-01 6.250000E-01 1.462105E-01
6.250000E-01 6.875000E-01 2.108049E-01
5.375000E-01 6.625000E-01 5.660677E-02
5.812500E-01 6.687500E-01 1.274177E-01
5.875000E-01 7.125000E-01 1.665101E-01
5.437500E-01 7.062500E-01 8.267457E-02
6.875000E-01 6.250000E-01 2.108049E-01
7.500000E-01 6.250000E-01 2.697891E-01
7.500000E-01 6.875000E-01 3.900520E-01
6.625000E-01 6.625000E-01 2.366245E-01
7.062500E-01 6.687500E-01 3.036811E-01
7.125000E-01 7.125000E-01 3.802144E-01
6.687500E-01 7.062500E-01 3.036811E-01
5.625000E-01 5.000000E-01 -6.372883E-04
6.250000E-01 5.000000E-01 3.988898E-04
6.250000E-01 5.625000E-01 7.361197E-02
5.375000E-01 5.375000E-01 1.325254E-02
5.812500E-01 5.437500E-01 3.498620E-02
5.875000E-01 5.875000E-01 7.273165E-02
5.437500E-01 5.812500E-01 3.498620E-02
6.875000E-01 5.000000E-01 -5.137506E-04
7.500000E-01 5.000000E-01 3.490075E-04
7.500000E-01 5.625000E-01 1.366836E-01
6.625000E-01 5.375000E-01 5.660677E-02
7.062500E-01 5.437500E-01 8.267457E-02
7.125000E-01 5.875000E-01 1.665101E-01
6.687500E-01 5.812500E-01 1.274177E-01
8.125000E-01 6.250000E-01 3.159363E-01
8.750000E-01 6.250000E-01 3.523346E-01
8.750000E-01 6.875000E-01 5.099519E-01
7.875000E-01 6.625000E-01 3.806448E-01
8.312500E-01 6.687500E-01 4.337423E-01
8.375000E-01 7.125000E-01 5.360611E-01
7.937500E-01 7.062500E-01 4.784777E-01
9.375000E-01 6.250000E-01 3.730227E-01
1.000000E+00 6.250000E-01 3.813614E-01
1.000000E+00 6.875000E-01 5.522255E-01
9.125000E-01 6.625000E-01 4.667586E-01
9.562500E-01 6.687500E-01 4.978181E-01
9.625000E-01 7.125000E-01 6.103440E-01
9.187500E-01 7.062500E-01 5.804706E-01
8.125000E-01 5.000000E-01 -2.765695E-04
8.750000E-01 5.000000E-01 2.894666E-04
8.750000E-01 5.625000E-01 1.789887E-01
7.875000E-01 5.375000E-01 9.137581E-02
8.312500E-01 5.437500E-01 1.178136E-01
8.375000E-01 5.875000E-01 2.349755E-01
7.937500E-01 5.812500E-01 2.004830E-01
9.375000E-01 5.000000E-01 5.924931E-05
1.000000E+00 5.000000E-01 3.133601E-04
1.000000E+00 5.625000E-01 1.940475E-01
9.125000E-01 5.375000E-01 1.122821E-01
9.562500E-01 5.437500E-01 1.350677E-01
9.625000E-01 5.875000E-01 2.677212E-01
9.187500E-01 5.812500E-01 2.430748E-01
0.000000E+00 3.750000E-01 3.813614E-01
6.250000E-02 3.750000E-01 3.730227E-01
[...]
CELL_DATA 896
SCALARS sol float 1
LOOKUP_TABLE default
-9.230415E-01
-9.264190E-01
-9.478048E-01
-8.897886E-01
-9.512497E-01
-8.934737E-01
-9.661391E-01
-8.650249E-01
-8.609643E-01
-9.512497E-01
-8.934737E-01
-8.612719E-01
-9.820076E-01
-8.163596E-01
-8.162181E-01
-9.661391E-01
-9.264190E-01
-8.612719E-01
-8.155903E-01
-9.820076E-01
-7.963771E-01
-7.680220E-01
-7.877104E-01
-9.478048E-01
-9.230415E-01
-8.155903E-01
-8.609643E-01
-7.841839E-01
-7.431062E-01
-7.223409E-01
-7.266607E-01
-8.897886E-01
-7.877104E-01
-7.841839E-01
-8.162181E-01
-7.276047E-01
-7.018974E-01
-6.622825E-01
-6.979614E-01
-8.650249E-01
-7.266607E-01
-7.276047E-01
-7.963771E-01
-6.835360E-01
-6.436203E-01
-6.165482E-01
-6.247706E-01
-6.382959E-01
-8.163596E-01
-7.018974E-01
-6.979614E-01
-6.835360E-01
-7.431062E-01
-6.319232E-01
-5.839608E-01
-5.423890E-01
-5.569764E-01
-5.839237E-01
-7.680220E-01
-6.436203E-01
-6.382959E-01
-6.319232E-01
-7.223409E-01
-5.710885E-01
-5.290994E-01
-5.591665E-01
-5.203291E-01
-4.713904E-01
-5.280508E-01
-5.839608E-01
-6.247706E-01
-5.839237E-01
-5.710885E-01
-6.622825E-01
-5.215883E-01
-4.492341E-01
-4.834627E-01
-4.467069E-01
-4.117201E-01
-4.666024E-01
-5.290994E-01
-5.591665E-01
-5.569764E-01
-5.280508E-01
-5.215883E-01
-6.165482E-01
-4.570143E-01
-4.034889E-01
-4.283917E-01
-4.467716E-01
-3.339860E-01
-4.244990E-01
-4.492341E-01
-4.834627E-01
-5.203291E-01
-4.666024E-01
-4.570143E-01
-5.423890E-01
-4.166052E-01
-3.280031E-01
-3.638211E-01
-3.799144E-01
-2.742400E-01
-2.934870E-01
-3.533049E-01
-4.034889E-01
-4.283917E-01
-4.467716E-01
-4.467069E-01
-4.244990E-01
-4.166052E-01
-4.713904E-01
-3.508987E-01
-2.634387E-01
-2.947629E-01
-3.285511E-01
-1.858665E-01
-2.129585E-01
-3.201136E-01
-3.280031E-01
-3.638211E-01
-3.799144E-01
-4.117201E-01
-3.533049E-01
-3.508987E-01
-3.051505E-01
-2.490239E-01
-1.899495E-01
-2.480949E-01
-2.657898E-01
-1.650839E-01
-1.030115E-01
-2.604582E-01
-2.634387E-01
-2.934870E-01
-2.947629E-01
-3.285511E-01
-3.339860E-01
-3.201136E-01
-3.051505E-01
-2.552335E-01
-1.657173E-01
-1.034224E-01
-1.786228E-01
-2.061363E-01
-8.231367E-02
-3.843181E-02
-2.105901E-01
-1.899495E-01
-2.490239E-01
-2.129585E-01
-2.480949E-01
-2.657898E-01
-2.742400E-01
-2.604582E-01
-2.552335E-01
-2.035487E-01
-1.419842E-01
-9.360503E-02
-4.366117E-02
-1.524341E-01
-1.858383E-01
4.514677E-02
-1.648824E-01
-1.034224E-01
-1.657173E-01
-1.650839E-01
-1.786228E-01
-2.061363E-01
-1.858665E-01
-2.105901E-01
-2.035487E-01
-1.630656E-01
-7.006061E-02
-3.395569E-02
3.754361E-02
-8.171911E-02
-1.203032E-01
1.098095E-01
8.246969E-02
-1.170447E-01
-4.366117E-02
-9.360503E-02
-1.419842E-01
-8.231367E-02
-1.524341E-01
-1.858383E-01
-1.030115E-01
-1.648824E-01
-1.630656E-01
-1.174084E-01
-3.598429E-02
3.927551E-02
9.718676E-02
-6.988621E-02
-9.721723E-02
1.989455E-01
1.634749E-01
-9.166565E-02
3.754361E-02
-3.395569E-02
-7.006061E-02
-3.843181E-02
-8.171911E-02
-1.203032E-01
-1.170447E-01
-1.174084E-01
-9.432115E-02
3.048275E-02
9.903060E-02
6.963763E-02
1.781152E-01
-2.423045E-02
-4.708785E-02
2.152879E-01
2.810434E-01
-4.752971E-02
9.718676E-02
8.246969E-02
3.927551E-02
-3.598429E-02
4.514677E-02
-6.988621E-02
-9.721723E-02
-9.166565E-02
-9.432115E-02
-5.653521E-02
7.613612E-02
1.772593E-01
1.365575E-01
2.581327E-01
2.750328E-02
-2.277935E-02
2.946062E-01
3.407018E-01
-3.548655E-02
1.781152E-01
9.903060E-02
1.634749E-01
6.963763E-02
3.048275E-02
1.098095E-01
-2.423045E-02
-4.708785E-02
-4.752971E-02
-5.653521E-02
-3.761412E-02
7.323571E-02
1.428474E-01
1.844240E-01
2.554329E-01
3.228107E-01
4.625586E-02
1.883064E-02
4.174007E-01
-1.077736E-02
2.581327E-01
1.772593E-01
2.152879E-01
1.365575E-01
7.613612E-02
1.989455E-01
2.750328E-02
-2.277935E-02
-3.548655E-02
-3.761412E-02
-1.691086E-02
1.286228E-01
2.023185E-01
2.504649E-01
3.010821E-01
3.973720E-01
8.889968E-02
4.353921E-02
4.771350E-01
4.458665E-01
1.158260E-02
3.228107E-01
2.554329E-01
1.844240E-01
2.946062E-01
1.428474E-01
7.323571E-02
2.810434E-01
4.625586E-02
1.883064E-02
-1.077736E-02
-1.691086E-02
-6.073637E-03
1.255341E-01
1.909943E-01
2.620695E-01
3.673378E-01
4.430150E-01
8.587881E-02
3.633235E-02
5.534625E-01
5.150158E-01
1.586715E-02
3.973720E-01
3.010821E-01
2.504649E-01
3.407018E-01
2.023185E-01
1.286228E-01
8.889968E-02
4.353921E-02
1.158260E-02
-6.073637E-03
4.344403E-03
1.682443E-01
2.157014E-01
3.221234E-01
4.320096E-01
3.767745E-01
5.190604E-01
1.157467E-01
6.044328E-02
5.628776E-01
6.223024E-01
2.774165E-02
4.430150E-01
4.458665E-01
3.673378E-01
2.620695E-01
4.174007E-01
1.909943E-01
1.255341E-01
8.587881E-02
3.633235E-02
1.586715E-02
4.344403E-03
4.344403E-03
1.614777E-01
2.614250E-01
3.468286E-01
4.932518E-01
4.309549E-01
5.803866E-01
9.751805E-02
4.756802E-02
6.266671E-01
6.679562E-01
1.586715E-02
5.190604E-01
4.320096E-01
5.150158E-01
3.767745E-01
3.221234E-01
4.771350E-01
2.157014E-01
1.682443E-01
1.157467E-01
6.044328E-02
2.774165E-02
4.344403E-03
-6.073637E-03
1.978800E-01
3.211741E-01
2.503702E-01
4.163915E-01
4.827604E-01
5.655835E-01
6.401315E-01
9.751805E-02
6.044328E-02
7.260958E-01
1.158260E-02
5.803866E-01
4.932518E-01
5.628776E-01
4.309549E-01
3.468286E-01
5.534625E-01
2.614250E-01
1.614777E-01
9.751805E-02
4.756802E-02
1.586715E-02
-6.073637E-03
-1.691086E-02
1.978800E-01
3.579825E-01
2.813289E-01
4.555668E-01
5.328654E-01
5.902852E-01
6.966963E-01
1.157467E-01
3.633235E-02
7.718032E-01
7.413714E-01
-1.077736E-02
6.401315E-01
5.655835E-01
4.827604E-01
6.266671E-01
4.163915E-01
3.211741E-01
6.223024E-01
2.503702E-01
1.978800E-01
9.751805E-02
6.044328E-02
1.158260E-02
-1.691086E-02
-3.761412E-02
1.614777E-01
2.503702E-01
3.291922E-01
4.228124E-01
5.202353E-01
6.394787E-01
7.213921E-01
8.587881E-02
4.353921E-02
8.236970E-01
7.881348E-01
-3.548655E-02
6.966963E-01
5.902852E-01
5.328654E-01
6.679562E-01
4.555668E-01
3.579825E-01
2.813289E-01
1.978800E-01
1.157467E-01
3.633235E-02
-1.077736E-02
-3.761412E-02
-5.653521E-02
1.682443E-01
2.614250E-01
3.579825E-01
4.228124E-01
5.647345E-01
6.992177E-01
6.265580E-01
7.809719E-01
8.889968E-02
1.883064E-02
8.247530E-01
8.687884E-01
-4.752971E-02
7.213921E-01
7.413714E-01
6.394787E-01
5.202353E-01
7.260958E-01
4.228124E-01
3.291922E-01
2.503702E-01
1.614777E-01
8.587881E-02
4.353921E-02
-3.548655E-02
-5.653521E-02
-9.432115E-02
1.255341E-01
2.157014E-01
3.211741E-01
4.555668E-01
5.647345E-01
7.341518E-01
6.597528E-01
8.142715E-01
4.625586E-02
-2.277935E-02
8.632968E-01
8.934835E-01
-9.166565E-02
7.809719E-01
6.992177E-01
7.881348E-01
6.265580E-01
5.647345E-01
7.718032E-01
4.228124E-01
3.579825E-01
2.614250E-01
1.682443E-01
8.889968E-02
1.883064E-02
-4.752971E-02
-9.432115E-02
-1.174084E-01
1.286228E-01
1.909943E-01
3.468286E-01
5.202353E-01
4.163915E-01
6.265580E-01
7.076076E-01
7.896258E-01
8.599781E-01
2.750328E-02
-4.708785E-02
9.241995E-01
-1.170447E-01
8.142715E-01
7.341518E-01
8.247530E-01
6.597528E-01
5.647345E-01
8.236970E-01
4.555668E-01
3.211741E-01
2.157014E-01
1.255341E-01
4.625586E-02
-2.277935E-02
-9.166565E-02
-1.174084E-01
-1.630656E-01
7.323571E-02
2.023185E-01
3.221234E-01
5.328654E-01
4.309549E-01
6.394787E-01
7.341518E-01
7.896258E-01
8.899313E-01
-2.423045E-02
-9.721723E-02
9.488970E-01
9.239659E-01
-1.648824E-01
8.599781E-01
7.896258E-01
7.076076E-01
8.632968E-01
6.265580E-01
5.202353E-01
8.687884E-01
4.163915E-01
3.468286E-01
1.909943E-01
1.286228E-01
2.750328E-02
-4.708785E-02
-1.170447E-01
-1.630656E-01
-2.035487E-01
7.613612E-02
2.620695E-01
1.428474E-01
3.767745E-01
4.827604E-01
5.902852E-01
6.992177E-01
8.142715E-01
8.899313E-01
-6.988621E-02
-1.203032E-01
9.684318E-01
9.412236E-01
-2.105901E-01
8.899313E-01
7.896258E-01
7.341518E-01
8.934835E-01
6.394787E-01
5.328654E-01
4.309549E-01
3.221234E-01
2.023185E-01
7.323571E-02
-2.423045E-02
-9.721723E-02
-1.648824E-01
-2.035487E-01
-2.552335E-01
3.048275E-02
2.504649E-01
1.365575E-01
3.673378E-01
4.932518E-01
5.655835E-01
7.213921E-01
8.599781E-01
7.809719E-01
9.239659E-01
-8.171911E-02
-1.858383E-01
9.609920E-01
9.828010E-01
-2.604582E-01
8.899313E-01
9.239659E-01
8.142715E-01
6.992177E-01
9.241995E-01
5.902852E-01
4.827604E-01
3.767745E-01
2.620695E-01
1.428474E-01
7.613612E-02
-6.988621E-02
-1.203032E-01
-2.105901E-01
-2.552335E-01
-3.051505E-01
6.963763E-02
-3.598429E-02
1.844240E-01
3.010821E-01
4.320096E-01
5.803866E-01
6.966963E-01
8.632968E-01
7.881348E-01
9.241995E-01
-1.524341E-01
-2.061363E-01
9.684318E-01
9.828010E-01
-3.201136E-01
9.239659E-01
8.599781E-01
9.412236E-01
7.809719E-01
7.213921E-01
9.488970E-01
5.655835E-01
4.932518E-01
3.673378E-01
2.504649E-01
1.365575E-01
3.048275E-02
-8.171911E-02
-1.858383E-01
-2.604582E-01
-3.051505E-01
-3.508987E-01
3.927551E-02
-7.006061E-02
1.772593E-01
2.554329E-01
4.430150E-01
6.401315E-01
5.190604E-01
7.413714E-01
8.247530E-01
8.934835E-01
9.488970E-01
-1.786228E-01
-2.657898E-01
-3.533049E-01
9.241995E-01
8.632968E-01
9.609920E-01
7.881348E-01
6.966963E-01
9.684318E-01
5.803866E-01
4.320096E-01
3.010821E-01
1.844240E-01
6.963763E-02
-3.598429E-02
-1.524341E-01
-2.061363E-01
-3.201136E-01
-3.508987E-01
-4.166052E-01
9.903060E-02
-3.395569E-02
-1.419842E-01
2.581327E-01
3.973720E-01
6.266671E-01
5.150158E-01
7.260958E-01
8.236970E-01
8.687884E-01
-2.480949E-01
-3.285511E-01
-4.244990E-01
9.488970E-01
8.934835E-01
8.247530E-01
9.684318E-01
7.413714E-01
6.401315E-01
9.828010E-01
5.190604E-01
4.430150E-01
2.554329E-01
1.772593E-01
3.927551E-02
-7.006061E-02
-1.786228E-01
-2.657898E-01
-3.533049E-01
-4.166052E-01
-4.570143E-01
9.718676E-02
-9.360503E-02
-1.657173E-01
3.228107E-01
1.781152E-01
4.458665E-01
5.628776E-01
6.679562E-01
7.718032E-01
-2.947629E-01
-3.799144E-01
-4.666024E-01
8.687884E-01
8.236970E-01
9.828010E-01
7.260958E-01
6.266671E-01
5.150158E-01
3.973720E-01
2.581327E-01
9.903060E-02
-3.395569E-02
-1.419842E-01
-2.480949E-01
-3.285511E-01
-4.244990E-01
-4.570143E-01
-5.215883E-01
3.754361E-02
-1.034224E-01
-2.490239E-01
2.946062E-01
1.634749E-01
4.174007E-01
5.534625E-01
6.223024E-01
-3.638211E-01
-4.467716E-01
-5.280508E-01
7.718032E-01
6.679562E-01
5.628776E-01
4.458665E-01
3.228107E-01
1.781152E-01
9.718676E-02
-9.360503E-02
-1.657173E-01
-2.947629E-01
-3.799144E-01
-4.666024E-01
-5.215883E-01
-5.710885E-01
8.246969E-02
-4.366117E-02
-1.899495E-01
-2.634387E-01
2.152879E-01
3.407018E-01
4.771350E-01
-4.283917E-01
-4.834627E-01
-5.839237E-01
6.223024E-01
5.534625E-01
4.174007E-01
2.946062E-01
1.634749E-01
3.754361E-02
-1.034224E-01
-2.490239E-01
-3.638211E-01
-4.467716E-01
-5.280508E-01
-5.710885E-01
-6.319232E-01
4.514677E-02
-8.231367E-02
-2.129585E-01
-3.280031E-01
1.989455E-01
2.810434E-01
-4.492341E-01
-5.591665E-01
-6.382959E-01
4.771350E-01
3.407018E-01
2.152879E-01
8.246969E-02
-4.366117E-02
-1.899495E-01
-2.634387E-01
-4.283917E-01
-4.834627E-01
-5.839237E-01
-6.319232E-01
-6.835360E-01
1.098095E-01
-3.843181E-02
-1.650839E-01
-2.934870E-01
-4.034889E-01
-5.290994E-01
-5.839608E-01
-6.979614E-01
2.810434E-01
1.989455E-01
4.514677E-02
-8.231367E-02
-2.129585E-01
-3.280031E-01
-4.492341E-01
-5.591665E-01
-6.382959E-01
-6.835360E-01
-7.276047E-01
-1.030115E-01
-1.858665E-01
-3.339860E-01
-4.467069E-01
-5.569764E-01
-6.436203E-01
-7.266607E-01
1.098095E-01
-3.843181E-02
-1.650839E-01
-2.934870E-01
-4.034889E-01
-5.290994E-01
-5.839608E-01
-6.979614E-01
-7.276047E-01
-7.841839E-01
-2.742400E-01
-4.117201E-01
-5.203291E-01
-6.247706E-01
-7.018974E-01
-7.877104E-01
-1.030115E-01
-1.858665E-01
-3.339860E-01
-4.467069E-01
-5.569764E-01
-6.436203E-01
-7.266607E-01
-7.841839E-01
-8.155903E-01
-4.713904E-01
-5.423890E-01
-6.622825E-01
-7.431062E-01
-8.162181E-01
-2.742400E-01
-4.117201E-01
-5.203291E-01
-6.247706E-01
-7.018974E-01
-7.877104E-01
-8.155903E-01
-8.612719E-01
-6.165482E-01
-7.223409E-01
-7.963771E-01
-8.609643E-01
-4.713904E-01
-5.423890E-01
-6.622825E-01
-7.431062E-01
-8.162181E-01
-8.612719E-01
-8.934737E-01
-7.680220E-01
-8.163596E-01
-8.897886E-01
-6.165482E-01
-7.223409E-01
-7.963771E-01
-8.609643E-01
-8.934737E-01
-9.264190E-01
-8.650249E-01
-9.230415E-01
-7.680220E-01
-8.163596E-01
-8.897886E-01
-9.264190E-01
-9.512497E-01
-9.478048E-01
-8.650249E-01
-9.230415E-01
-9.512497E-01
-9.661391E-01
-9.478048E-01
-9.661391E-01
-9.820076E-01
-9.820076E-01
