# vtk DataFile Version 2.0
Grille
ASCII
DATASET POLYDATA
POINTS 481 float
0.000000E+00 8.750000E-01 -6.660861E-01
6.250000E-02 8.750000E-01 -6.519660E-01
1.250000E-01 8.750000E-01 -6.153096E-01
1.250000E-01 9.375000E-01 -6.519660E-01
1.250000E-01 1.000000E+00 -6.660861E-01
6.250000E-02 1.000000E+00 -7.057860E-01
0.000000E+00 1.000000E+00 -7.214005E-01
0.000000E+00 9.375000E-01 -7.057860E-01
3.750000E-02 9.125000E-01 -6.869117E-01
8.125000E-02 9.187500E-01 -6.734261E-01
8.750000E-02 9.625000E-01 -6.869117E-01
4.375000E-02 9.562500E-01 -7.059323E-01
1.875000E-01 8.750000E-01 -5.526833E-01
2.500000E-01 8.750000E-01 -4.707566E-01
2.500000E-01 9.375000E-01 -4.988641E-01
2.500000E-01 1.000000E+00 -5.095871E-01
1.875000E-01 1.000000E+00 -5.981456E-01
1.625000E-01 9.125000E-01 -6.034394E-01
2.062500E-01 9.187500E-01 -5.547166E-01
2.125000E-01 9.625000E-01 -5.603182E-01
1.687500E-01 9.562500E-01 -6.146406E-01
0.000000E+00 7.500000E-01 -5.095871E-01
6.250000E-02 7.500000E-01 -4.988641E-01
1.250000E-01 7.500000E-01 -4.707566E-01
1.250000E-01 8.125000E-01 -5.526833E-01
0.000000E+00 8.125000E-01 -5.981456E-01
3.750000E-02 7.875000E-01 -5.603182E-01
8.125000E-02 7.937500E-01 -5.547166E-01
8.750000E-02 8.375000E-01 -6.034394E-01
4.375000E-02 8.312500E-01 -6.146406E-01
1.875000E-01 7.500000E-01 -4.230088E-01
2.500000E-01 7.500000E-01 -3.601271E-01
2.500000E-01 8.125000E-01 -4.230088E-01
1.625000E-01 7.875000E-01 -4.923422E-01
2.062500E-01 7.937500E-01 -4.569066E-01
2.125000E-01 8.375000E-01 -4.923422E-01
1.687500E-01 8.312500E-01 -5.351815E-01
3.125000E-01 8.750000E-01 -3.692025E-01
3.750000E-01 8.750000E-01 -2.544831E-01
3.750000E-01 9.375000E-01 -2.697821E-01
3.750000E-01 1.000000E+00 -2.754854E-01
3.125000E-01 1.000000E+00 -3.994671E-01
2.875000E-01 9.125000E-01 -4.280587E-01
3.312500E-01 9.187500E-01 -3.515234E-01
3.375000E-01 9.625000E-01 -3.484117E-01
2.937500E-01 9.562500E-01 -4.297891E-01
4.375000E-01 8.750000E-01 -1.294605E-01
5.000000E-01 8.750000E-01 5.890242E-04
5.000000E-01 9.375000E-01 4.220507E-04
5.000000E-01 1.000000E+00 6.048700E-04
4.375000E-01 1.000000E+00 -1.399328E-01
4.125000E-01 9.125000E-01 -1.874650E-01
4.562500E-01 9.187500E-01 -9.476521E-02
4.625000E-01 9.625000E-01 -8.341732E-02
4.187500E-01 9.562500E-01 -1.794669E-01
3.125000E-01 7.500000E-01 -2.826667E-01
3.750000E-01 7.500000E-01 -1.945947E-01
3.750000E-01 8.125000E-01 -2.288678E-01
2.875000E-01 7.875000E-01 -3.493245E-01
3.312500E-01 7.937500E-01 -2.894602E-01
3.375000E-01 8.375000E-01 -3.062250E-01
2.937500E-01 8.312500E-01 -3.741716E-01
4.375000E-01 7.500000E-01 -9.921987E-02
5.000000E-01 7.500000E-01 6.315458E-04
5.000000E-01 8.125000E-01 1.786450E-04
4.125000E-01 7.875000E-01 -1.530569E-01
4.562500E-01 7.937500E-01 -7.788069E-02
4.625000E-01 8.375000E-01 -7.342828E-02
4.187500E-01 8.312500E-01 -1.561363E-01
0.000000E+00 6.250000E-01 -2.754854E-01
6.250000E-02 6.250000E-01 -2.697821E-01
1.250000E-01 6.250000E-01 -2.544831E-01
1.250000E-01 6.875000E-01 -3.692025E-01
0.000000E+00 6.875000E-01 -3.994671E-01
3.750000E-02 6.625000E-01 -3.484117E-01
8.125000E-02 6.687500E-01 -3.515234E-01
8.750000E-02 7.125000E-01 -4.280587E-01
4.375000E-02 7.062500E-01 -4.297891E-01
1.875000E-01 6.250000E-01 -2.288678E-01
2.500000E-01 6.250000E-01 -1.945947E-01
2.500000E-01 6.875000E-01 -2.826667E-01
1.625000E-01 6.625000E-01 -3.062250E-01
2.062500E-01 6.687500E-01 -2.894602E-01
2.125000E-01 7.125000E-01 -3.493245E-01
1.687500E-01 7.062500E-01 -3.741716E-01
0.000000E+00 5.000000E-01 6.048700E-04
6.250000E-02 5.000000E-01 4.220507E-04
1.250000E-01 5.000000E-01 5.890242E-04
1.250000E-01 5.625000E-01 -1.294605E-01
0.000000E+00 5.625000E-01 -1.399328E-01
3.750000E-02 5.375000E-01 -8.341732E-02
8.125000E-02 5.437500E-01 -9.476521E-02
8.750000E-02 5.875000E-01 -1.874650E-01
4.375000E-02 5.812500E-01 -1.794669E-01
1.875000E-01 5.000000E-01 1.786450E-04
2.500000E-01 5.000000E-01 6.315458E-04
2.500000E-01 5.625000E-01 -9.921987E-02
1.625000E-01 5.375000E-01 -7.342828E-02
2.062500E-01 5.437500E-01 -7.788069E-02
2.125000E-01 5.875000E-01 -1.530569E-01
1.687500E-01 5.812500E-01 -1.561363E-01
3.125000E-01 6.250000E-01 -1.530147E-01
3.750000E-01 6.250000E-01 -1.049946E-01
3.750000E-01 6.875000E-01 -1.530147E-01
2.875000E-01 6.625000E-01 -2.173236E-01
3.312500E-01 6.687500E-01 -1.832403E-01
3.375000E-01 7.125000E-01 -2.173236E-01
2.937500E-01 7.062500E-01 -2.615011E-01
4.375000E-01 6.250000E-01 -5.378576E-02
5.000000E-01 6.250000E-01 6.668709E-04
5.000000E-01 6.875000E-01 5.948306E-06
4.125000E-01 6.625000E-01 -9.525594E-02
4.562500E-01 6.687500E-01 -4.904666E-02
4.625000E-01 7.125000E-01 -5.216384E-02
4.187500E-01 7.062500E-01 -1.089424E-01
3.125000E-01 5.000000E-01 5.948306E-06
3.750000E-01 5.000000E-01 6.668709E-04
3.750000E-01 5.625000E-01 -5.378576E-02
2.875000E-01 5.375000E-01 -5.216384E-02
3.312500E-01 5.437500E-01 -4.904666E-02
3.375000E-01 5.875000E-01 -9.525594E-02
2.937500E-01 5.812500E-01 -1.089424E-01
4.375000E-01 5.000000E-01 -8.420248E-05
5.000000E-01 5.000000E-01 6.803447E-04
5.000000E-01 5.625000E-01 -8.420248E-05
4.125000E-01 5.375000E-01 -2.287271E-02
4.562500E-01 5.437500E-01 -1.266386E-02
4.625000E-01 5.875000E-01 -2.287271E-02
4.187500E-01 5.812500E-01 -4.507927E-02
5.625000E-01 8.750000E-01 1.300481E-01
6.250000E-01 8.750000E-01 2.556292E-01
6.250000E-01 9.375000E-01 2.706164E-01
6.250000E-01 1.000000E+00 2.766564E-01
5.625000E-01 1.000000E+00 1.409574E-01
5.375000E-01 9.125000E-01 8.172264E-02
5.812500E-01 9.187500E-01 1.764750E-01
5.875000E-01 9.625000E-01 1.943300E-01
5.437500E-01 9.562500E-01 9.822974E-02
6.875000E-01 8.750000E-01 3.698153E-01
7.500000E-01 8.750000E-01 4.718080E-01
7.500000E-01 9.375000E-01 4.996623E-01
7.500000E-01 1.000000E+00 5.106380E-01
6.875000E-01 1.000000E+00 4.004403E-01
6.625000E-01 9.125000E-01 3.385241E-01
7.062500E-01 9.187500E-01 4.209024E-01
7.125000E-01 9.625000E-01 4.425441E-01
6.687500E-01 9.562500E-01 3.610252E-01
5.625000E-01 7.500000E-01 9.939939E-02
6.250000E-01 7.500000E-01 1.958284E-01
6.250000E-01 8.125000E-01 2.292600E-01
5.375000E-01 7.875000E-01 6.657663E-02
5.812500E-01 7.937500E-01 1.456191E-01
5.875000E-01 8.375000E-01 1.706075E-01
5.437500E-01 8.312500E-01 8.572996E-02
6.875000E-01 7.500000E-01 2.829531E-01
7.500000E-01 7.500000E-01 3.612806E-01
7.500000E-01 8.125000E-01 4.235011E-01
6.625000E-01 7.875000E-01 2.761385E-01
7.062500E-01 7.937500E-01 3.470135E-01
7.125000E-01 8.375000E-01 3.887299E-01
6.687500E-01 8.312500E-01 3.146053E-01
8.125000E-01 8.750000E-01 5.533353E-01
8.750000E-01 8.750000E-01 6.162102E-01
8.750000E-01 9.375000E-01 6.526719E-01
8.750000E-01 1.000000E+00 6.669020E-01
8.125000E-01 1.000000E+00 5.990006E-01
7.875000E-01 9.125000E-01 5.438383E-01
8.312500E-01 9.187500E-01 6.012957E-01
8.375000E-01 9.625000E-01 6.234219E-01
7.937500E-01 9.562500E-01 5.689028E-01
9.375000E-01 8.750000E-01 6.526719E-01
1.000000E+00 8.750000E-01 6.669020E-01
1.000000E+00 9.375000E-01 7.063481E-01
1.000000E+00 1.000000E+00 7.214082E-01
9.375000E-01 1.000000E+00 7.063481E-01
9.125000E-01 9.125000E-01 6.663946E-01
9.562500E-01 9.187500E-01 6.901788E-01
9.625000E-01 9.625000E-01 7.093578E-01
9.187500E-01 9.562500E-01 6.901788E-01
8.125000E-01 7.500000E-01 4.235011E-01
8.750000E-01 7.500000E-01 4.718080E-01
8.750000E-01 8.125000E-01 5.533353E-01
7.875000E-01 7.875000E-01 4.437268E-01
8.312500E-01 7.937500E-01 4.956453E-01
8.375000E-01 8.375000E-01 5.477318E-01
7.937500E-01 8.312500E-01 4.956453E-01
9.375000E-01 7.500000E-01 4.996623E-01
1.000000E+00 7.500000E-01 5.106380E-01
1.000000E+00 8.125000E-01 5.990006E-01
9.125000E-01 7.875000E-01 5.438383E-01
9.562500E-01 7.937500E-01 5.689028E-01
9.625000E-01 8.375000E-01 6.234219E-01
9.187500E-01 8.312500E-01 6.012957E-01
5.625000E-01 6.250000E-01 5.370621E-02
6.250000E-01 6.250000E-01 1.063008E-01
6.250000E-01 6.875000E-01 1.530966E-01
5.375000E-01 6.625000E-01 4.138719E-02
5.812500E-01 6.687500E-01 9.268614E-02
5.875000E-01 7.125000E-01 1.210070E-01
5.437500E-01 7.062500E-01 6.027243E-02
6.875000E-01 6.250000E-01 1.530966E-01
7.500000E-01 6.250000E-01 1.958284E-01
7.500000E-01 6.875000E-01 2.829531E-01
6.625000E-01 6.625000E-01 1.718020E-01
7.062500E-01 6.687500E-01 2.203814E-01
7.125000E-01 7.125000E-01 2.758260E-01
6.687500E-01 7.062500E-01 2.203814E-01
5.625000E-01 5.000000E-01 -8.420248E-05
6.250000E-01 5.000000E-01 6.668709E-04
6.250000E-01 5.625000E-01 5.370621E-02
5.375000E-01 5.375000E-01 9.978471E-03
5.812500E-01 5.437500E-01 2.572358E-02
5.875000E-01 5.875000E-01 5.306831E-02
5.437500E-01 5.812500E-01 2.572358E-02
6.875000E-01 5.000000E-01 5.948306E-06
7.500000E-01 5.000000E-01 6.315458E-04
7.500000E-01 5.625000E-01 9.939939E-02
6.625000E-01 5.375000E-01 4.138719E-02
7.062500E-01 5.437500E-01 6.027243E-02
7.125000E-01 5.875000E-01 1.210070E-01
6.687500E-01 5.812500E-01 9.268614E-02
8.125000E-01 6.250000E-01 2.292600E-01
8.750000E-01 6.250000E-01 2.556292E-01
8.750000E-01 6.875000E-01 3.698153E-01
7.875000E-01 6.625000E-01 2.761385E-01
8.312500E-01 6.687500E-01 3.146053E-01
8.375000E-01 7.125000E-01 3.887299E-01
7.937500E-01 7.062500E-01 3.470135E-01
9.375000E-01 6.250000E-01 2.706164E-01
1.000000E+00 6.250000E-01 2.766564E-01
1.000000E+00 6.875000E-01 4.004403E-01
9.125000E-01 6.625000E-01 3.385241E-01
9.562500E-01 6.687500E-01 3.610252E-01
9.625000E-01 7.125000E-01 4.425441E-01
9.187500E-01 7.062500E-01 4.209024E-01
8.125000E-01 5.000000E-01 1.786450E-04
8.750000E-01 5.000000E-01 5.890242E-04
8.750000E-01 5.625000E-01 1.300481E-01
7.875000E-01 5.375000E-01 6.657663E-02
8.312500E-01 5.437500E-01 8.572996E-02
8.375000E-01 5.875000E-01 1.706075E-01
7.937500E-01 5.812500E-01 1.456191E-01
9.375000E-01 5.000000E-01 4.220507E-04
1.000000E+00 5.000000E-01 6.048700E-04
1.000000E+00 5.625000E-01 1.409574E-01
9.125000E-01 5.375000E-01 8.172264E-02
9.562500E-01 5.437500E-01 9.822974E-02
9.625000E-01 5.875000E-01 1.943300E-01
9.187500E-01 5.812500E-01 1.764750E-01
0.000000E+00 3.750000E-01 2.766564E-01
6.250000E-02 3.750000E-01 2.706164E-01
[...]
CELL_DATA 896
SCALARS sol float 1
LOOKUP_TABLE default
-6.683213E-01
-6.707680E-01
-6.862613E-01
-6.442309E-01
-6.887567E-01
-6.469006E-01
-6.995433E-01
-6.262908E-01
-6.233487E-01
-6.887567E-01
-6.469006E-01
-6.235717E-01
-7.110396E-01
-5.910348E-01
-5.909322E-01
-6.995433E-01
-6.707680E-01
-6.235717E-01
-5.904774E-01
-7.110396E-01
-5.765585E-01
-5.560170E-01
-5.702797E-01
-6.862613E-01
-6.683213E-01
-5.904774E-01
-6.233487E-01
-5.677248E-01
-5.379663E-01
-5.229231E-01
-5.260522E-01
-6.442309E-01
-5.702797E-01
-5.677248E-01
-5.909322E-01
-5.267357E-01
-5.081124E-01
-4.794134E-01
-5.052607E-01
-6.262908E-01
-5.260522E-01
-5.267357E-01
-5.765585E-01
-4.948101E-01
-4.658931E-01
-4.462811E-01
-4.522373E-01
-4.620359E-01
-5.910348E-01
-5.081124E-01
-5.052607E-01
-4.948101E-01
-5.379663E-01
-4.574192E-01
-4.226726E-01
-3.925560E-01
-4.031237E-01
-4.226457E-01
-5.560170E-01
-4.658931E-01
-4.620359E-01
-4.574192E-01
-5.229231E-01
-4.133475E-01
-3.829282E-01
-4.047103E-01
-3.765747E-01
-3.411214E-01
-3.821683E-01
-4.226726E-01
-4.522373E-01
-4.226457E-01
-4.133475E-01
-4.794134E-01
-3.774868E-01
-3.250697E-01
-3.498664E-01
-3.232391E-01
-2.978931E-01
-3.376521E-01
-3.829282E-01
-4.047103E-01
-4.031237E-01
-3.821683E-01
-3.774868E-01
-4.462811E-01
-3.307061E-01
-2.919295E-01
-3.099702E-01
-3.232856E-01
-2.415781E-01
-3.071505E-01
-3.250697E-01
-3.498664E-01
-3.765747E-01
-3.376521E-01
-3.307061E-01
-3.925560E-01
-3.014316E-01
-2.372434E-01
-2.631920E-01
-2.748510E-01
-1.982950E-01
-2.122380E-01
-2.555739E-01
-2.919295E-01
-3.099702E-01
-3.232856E-01
-3.232391E-01
-3.071505E-01
-3.014316E-01
-3.411214E-01
-2.538305E-01
-1.904695E-01
-2.131624E-01
-2.376409E-01
-1.342723E-01
-1.538990E-01
-2.315283E-01
-2.372434E-01
-2.631920E-01
-2.748510E-01
-2.978931E-01
-2.555739E-01
-2.538305E-01
-2.206883E-01
-1.800266E-01
-1.372302E-01
-1.793537E-01
-1.921731E-01
-1.192165E-01
-7.424841E-02
-1.883110E-01
-1.904695E-01
-2.122380E-01
-2.131624E-01
-2.376409E-01
-2.415781E-01
-2.315283E-01
-2.206883E-01
-1.845262E-01
-1.196750E-01
-7.454555E-02
-1.290246E-01
-1.489572E-01
-5.925350E-02
-2.746347E-02
-1.521839E-01
-1.372302E-01
-1.800266E-01
-1.538990E-01
-1.793537E-01
-1.921731E-01
-1.982950E-01
-1.883110E-01
-1.845262E-01
-1.470832E-01
-1.024818E-01
-6.743324E-02
-3.125138E-02
-1.100525E-01
-1.342523E-01
3.308555E-02
-1.190710E-01
-7.454555E-02
-1.196750E-01
-1.192165E-01
-1.290246E-01
-1.489572E-01
-1.342723E-01
-1.521839E-01
-1.470832E-01
-1.177551E-01
-5.037677E-02
-2.422020E-02
2.757791E-02
-5.882300E-02
-8.677538E-02
7.993065E-02
6.012481E-02
-8.441501E-02
-3.125138E-02
-6.743324E-02
-1.024818E-01
-5.925350E-02
-1.100525E-01
-1.342523E-01
-7.424841E-02
-1.190710E-01
-1.177551E-01
-8.467877E-02
-2.569017E-02
2.883254E-02
7.078658E-02
-5.025072E-02
-7.005098E-02
1.445057E-01
1.188091E-01
-6.602945E-02
2.757791E-02
-2.422020E-02
-5.037677E-02
-2.746347E-02
-5.882300E-02
-8.677538E-02
-8.441501E-02
-8.467877E-02
-6.795321E-02
2.246227E-02
7.212236E-02
5.082841E-02
1.294152E-01
-1.717545E-02
-3.373485E-02
1.563449E-01
2.039813E-01
-3.405518E-02
7.078658E-02
6.012481E-02
2.883254E-02
-2.569017E-02
3.308555E-02
-5.025072E-02
-7.005098E-02
-6.602945E-02
-6.795321E-02
-4.057925E-02
5.553585E-02
1.287952E-01
9.930856E-02
1.873841E-01
2.030331E-02
-1.612461E-02
2.138072E-01
2.472010E-01
-2.533053E-02
1.294152E-01
7.212236E-02
1.188091E-01
5.082841E-02
2.246227E-02
7.993065E-02
-1.717545E-02
-3.373485E-02
-3.405518E-02
-4.057925E-02
-2.687195E-02
5.343445E-02
1.038650E-01
1.339855E-01
1.854283E-01
2.342402E-01
3.388852E-02
1.402000E-02
3.027660E-01
-7.430013E-03
1.873841E-01
1.287952E-01
1.563449E-01
9.930856E-02
5.553585E-02
1.445057E-01
2.030331E-02
-1.612461E-02
-2.533053E-02
-2.687195E-02
-1.187359E-02
9.355959E-02
1.469490E-01
1.818289E-01
2.184989E-01
2.882566E-01
6.478192E-02
3.192009E-02
3.460407E-01
3.233886E-01
8.768750E-03
2.342402E-01
1.854283E-01
1.339855E-01
2.138072E-01
1.038650E-01
5.343445E-02
2.039813E-01
3.388852E-02
1.402000E-02
-7.430013E-03
-1.187359E-02
-4.022572E-03
9.132184E-02
1.387449E-01
1.902358E-01
2.664982E-01
3.213229E-01
6.259318E-02
2.669889E-02
4.013365E-01
3.734839E-01
1.187262E-02
2.882566E-01
2.184989E-01
1.818289E-01
2.472010E-01
1.469490E-01
9.355959E-02
6.478192E-02
3.192009E-02
8.768750E-03
-4.022572E-03
3.524871E-03
1.222632E-01
1.566440E-01
2.337423E-01
3.133500E-01
2.733346E-01
3.764140E-01
8.423107E-02
4.416603E-02
4.081572E-01
4.512075E-01
2.047521E-02
3.213229E-01
3.233886E-01
2.664982E-01
1.902358E-01
3.027660E-01
1.387449E-01
9.132184E-02
6.259318E-02
2.669889E-02
1.187262E-02
3.524871E-03
3.524871E-03
1.173612E-01
1.897688E-01
2.516400E-01
3.577169E-01
3.125858E-01
4.208419E-01
7.102512E-02
3.483849E-02
4.543696E-01
4.842815E-01
1.187262E-02
3.764140E-01
3.133500E-01
3.734839E-01
2.733346E-01
2.337423E-01
3.460407E-01
1.566440E-01
1.222632E-01
8.423107E-02
4.416603E-02
2.047521E-02
3.524871E-03
-4.022572E-03
1.437331E-01
2.330543E-01
1.817600E-01
3.020351E-01
3.501162E-01
4.101178E-01
4.641243E-01
7.102512E-02
4.416603E-02
5.264010E-01
8.768750E-03
4.208419E-01
3.577169E-01
4.081572E-01
3.125858E-01
2.516400E-01
4.013365E-01
1.897688E-01
1.173612E-01
7.102512E-02
3.483849E-02
1.187262E-02
-4.022572E-03
-1.187359E-02
1.437331E-01
2.597201E-01
2.041882E-01
3.304158E-01
3.864148E-01
4.280130E-01
5.051029E-01
8.423107E-02
2.669889E-02
5.595138E-01
5.374678E-01
-7.430013E-03
4.641243E-01
4.101178E-01
3.501162E-01
4.543696E-01
3.020351E-01
2.330543E-01
4.512075E-01
1.817600E-01
1.437331E-01
7.102512E-02
4.416603E-02
8.768750E-03
-1.187359E-02
-2.687195E-02
1.173612E-01
1.817600E-01
2.388629E-01
3.066866E-01
3.772651E-01
4.636515E-01
5.229939E-01
6.259318E-02
3.192009E-02
5.971084E-01
5.713456E-01
-2.533053E-02
5.051029E-01
4.280130E-01
3.864148E-01
4.842815E-01
3.304158E-01
2.597201E-01
2.041882E-01
1.437331E-01
8.423107E-02
2.669889E-02
-7.430013E-03
-2.687195E-02
-4.057925E-02
1.222632E-01
1.897688E-01
2.597201E-01
3.066866E-01
4.095029E-01
5.069295E-01
4.542911E-01
5.661564E-01
6.478192E-02
1.402000E-02
5.978735E-01
6.297749E-01
-3.405518E-02
5.229939E-01
5.374678E-01
4.636515E-01
3.772651E-01
5.264010E-01
3.066866E-01
2.388629E-01
1.817600E-01
1.173612E-01
6.259318E-02
3.192009E-02
-2.533053E-02
-4.057925E-02
-6.795321E-02
9.132184E-02
1.566440E-01
2.330543E-01
3.304158E-01
4.095029E-01
5.322375E-01
4.783391E-01
5.902804E-01
3.388852E-02
-1.612461E-02
6.257965E-01
6.476653E-01
-6.602945E-02
5.661564E-01
5.069295E-01
5.713456E-01
4.542911E-01
4.095029E-01
5.595138E-01
3.066866E-01
2.597201E-01
1.897688E-01
1.222632E-01
6.478192E-02
1.402000E-02
-3.405518E-02
-6.795321E-02
-8.467877E-02
9.355959E-02
1.387449E-01
2.516400E-01
3.772651E-01
3.020351E-01
4.542911E-01
5.130075E-01
5.724258E-01
6.233926E-01
2.030331E-02
-3.373485E-02
6.699176E-01
-8.441501E-02
5.902804E-01
5.322375E-01
5.978735E-01
4.783391E-01
4.095029E-01
5.971084E-01
3.304158E-01
2.330543E-01
1.566440E-01
9.132184E-02
3.388852E-02
-1.612461E-02
-6.602945E-02
-8.467877E-02
-1.177551E-01
5.343445E-02
1.469490E-01
2.337423E-01
3.864148E-01
3.125858E-01
4.636515E-01
5.322375E-01
5.724258E-01
6.450922E-01
-1.717545E-02
-7.005098E-02
6.878096E-01
6.697484E-01
-1.190710E-01
6.233926E-01
5.724258E-01
5.130075E-01
6.257965E-01
4.542911E-01
3.772651E-01
6.297749E-01
3.020351E-01
2.516400E-01
1.387449E-01
9.355959E-02
2.030331E-02
-3.373485E-02
-8.441501E-02
-1.177551E-01
-1.470832E-01
5.553585E-02
1.902358E-01
1.038650E-01
2.733346E-01
3.501162E-01
4.280130E-01
5.069295E-01
5.902804E-01
6.450922E-01
-5.025072E-02
-8.677538E-02
7.019616E-01
6.822507E-01
-1.521839E-01
6.450922E-01
5.724258E-01
5.322375E-01
6.476653E-01
4.636515E-01
3.864148E-01
3.125858E-01
2.337423E-01
1.469490E-01
5.343445E-02
-1.717545E-02
-7.005098E-02
-1.190710E-01
-1.470832E-01
-1.845262E-01
2.246227E-02
1.818289E-01
9.930856E-02
2.664982E-01
3.577169E-01
4.101178E-01
5.229939E-01
6.233926E-01
5.661564E-01
6.697484E-01
-5.882300E-02
-1.342523E-01
6.965718E-01
7.123714E-01
-1.883110E-01
6.450922E-01
6.697484E-01
5.902804E-01
5.069295E-01
6.699176E-01
4.280130E-01
3.501162E-01
2.733346E-01
1.902358E-01
1.038650E-01
5.553585E-02
-5.025072E-02
-8.677538E-02
-1.521839E-01
-1.845262E-01
-2.206883E-01
5.082841E-02
-2.569017E-02
1.339855E-01
2.184989E-01
3.133500E-01
4.208419E-01
5.051029E-01
6.257965E-01
5.713456E-01
6.699176E-01
-1.100525E-01
-1.489572E-01
7.019616E-01
7.123714E-01
-2.315283E-01
6.697484E-01
6.233926E-01
6.822507E-01
5.661564E-01
5.229939E-01
6.878096E-01
4.101178E-01
3.577169E-01
2.664982E-01
1.818289E-01
9.930856E-02
2.246227E-02
-5.882300E-02
-1.342523E-01
-1.883110E-01
-2.206883E-01
-2.538305E-01
2.883254E-02
-5.037677E-02
1.287952E-01
1.854283E-01
3.213229E-01
4.641243E-01
3.764140E-01
5.374678E-01
5.978735E-01
6.476653E-01
6.878096E-01
-1.290246E-01
-1.921731E-01
-2.555739E-01
6.699176E-01
6.257965E-01
6.965718E-01
5.713456E-01
5.051029E-01
7.019616E-01
4.208419E-01
3.133500E-01
2.184989E-01
1.339855E-01
5.082841E-02
-2.569017E-02
-1.100525E-01
-1.489572E-01
-2.315283E-01
-2.538305E-01
-3.014316E-01
7.212236E-02
-2.422020E-02
-1.024818E-01
1.873841E-01
2.882566E-01
4.543696E-01
3.734839E-01
5.264010E-01
5.971084E-01
6.297749E-01
-1.793537E-01
-2.376409E-01
-3.071505E-01
6.878096E-01
6.476653E-01
5.978735E-01
7.019616E-01
5.374678E-01
4.641243E-01
7.123714E-01
3.764140E-01
3.213229E-01
1.854283E-01
1.287952E-01
2.883254E-02
-5.037677E-02
-1.290246E-01
-1.921731E-01
-2.555739E-01
-3.014316E-01
-3.307061E-01
7.078658E-02
-6.743324E-02
-1.196750E-01
2.342402E-01
1.294152E-01
3.233886E-01
4.081572E-01
4.842815E-01
5.595138E-01
-2.131624E-01
-2.748510E-01
-3.376521E-01
6.297749E-01
5.971084E-01
7.123714E-01
5.264010E-01
4.543696E-01
3.734839E-01
2.882566E-01
1.873841E-01
7.212236E-02
-2.422020E-02
-1.024818E-01
-1.793537E-01
-2.376409E-01
-3.071505E-01
-3.307061E-01
-3.774868E-01
2.757791E-02
-7.454555E-02
-1.800266E-01
2.138072E-01
1.188091E-01
3.027660E-01
4.013365E-01
4.512075E-01
-2.631920E-01
-3.232856E-01
-3.821683E-01
5.595138E-01
4.842815E-01
4.081572E-01
3.233886E-01
2.342402E-01
1.294152E-01
7.078658E-02
-6.743324E-02
-1.196750E-01
-2.131624E-01
-2.748510E-01
-3.376521E-01
-3.774868E-01
-4.133475E-01
6.012481E-02
-3.125138E-02
-1.372302E-01
-1.904695E-01
1.563449E-01
2.472010E-01
3.460407E-01
-3.099702E-01
-3.498664E-01
-4.226457E-01
4.512075E-01
4.013365E-01
3.027660E-01
2.138072E-01
1.188091E-01
2.757791E-02
-7.454555E-02
-1.800266E-01
-2.631920E-01
-3.232856E-01
-3.821683E-01
-4.133475E-01
-4.574192E-01
3.308555E-02
-5.925350E-02
-1.538990E-01
-2.372434E-01
1.445057E-01
2.039813E-01
-3.250697E-01
-4.047103E-01
-4.620359E-01
3.460407E-01
2.472010E-01
1.563449E-01
6.012481E-02
-3.125138E-02
-1.372302E-01
-1.904695E-01
-3.099702E-01
-3.498664E-01
-4.226457E-01
-4.574192E-01
-4.948101E-01
7.993065E-02
-2.746347E-02
-1.192165E-01
-2.122380E-01
-2.919295E-01
-3.829282E-01
-4.226726E-01
-5.052607E-01
2.039813E-01
1.445057E-01
3.308555E-02
-5.925350E-02
-1.538990E-01
-2.372434E-01
-3.250697E-01
-4.047103E-01
-4.620359E-01
-4.948101E-01
-5.267357E-01
-7.424841E-02
-1.342723E-01
-2.415781E-01
-3.232391E-01
-4.031237E-01
-4.658931E-01
-5.260522E-01
7.993065E-02
-2.746347E-02
-1.192165E-01
-2.122380E-01
-2.919295E-01
-3.829282E-01
-4.226726E-01
-5.052607E-01
-5.267357E-01
-5.677248E-01
-1.982950E-01
-2.978931E-01
-3.765747E-01
-4.522373E-01
-5.081124E-01
-5.702797E-01
-7.424841E-02
-1.342723E-01
-2.415781E-01
-3.232391E-01
-4.031237E-01
-4.658931E-01
-5.260522E-01
-5.677248E-01
-5.904774E-01
-3.411214E-01
-3.925560E-01
-4.794134E-01
-5.379663E-01
-5.909322E-01
-1.982950E-01
-2.978931E-01
-3.765747E-01
-4.522373E-01
-5.081124E-01
-5.702797E-01
-5.904774E-01
-6.235717E-01
-4.462811E-01
-5.229231E-01
-5.765585E-01
-6.233487E-01
-3.411214E-01
-3.925560E-01
-4.794134E-01
-5.379663E-01
-5.909322E-01
-6.235717E-01
-6.469006E-01
-5.560170E-01
-5.910348E-01
-6.442309E-01
-4.462811E-01
-5.229231E-01
-5.765585E-01
-6.233487E-01
-6.469006E-01
-6.707680E-01
-6.262908E-01
-6.683213E-01
-5.560170E-01
-5.910348E-01
-6.442309E-01
-6.707680E-01
-6.887567E-01
-6.862613E-01
-6.262908E-01
-6.683213E-01
-6.887567E-01
-6.995433E-01
-6.862613E-01
-6.995433E-01
-7.110396E-01
-7.110396E-01
