# vtk DataFile Version 2.0
Grille
ASCII
DATASET POLYDATA
POINTS 481 float
0.000000E+00 8.750000E-01 -7.298948E-01
6.250000E-02 8.750000E-01 -7.144241E-01
1.250000E-01 8.750000E-01 -6.742607E-01
1.250000E-01 9.375000E-01 -7.144241E-01
1.250000E-01 1.000000E+00 -7.298948E-01
6.250000E-02 1.000000E+00 -7.733929E-01
0.000000E+00 1.000000E+00 -7.905011E-01
0.000000E+00 9.375000E-01 -7.733929E-01
3.750000E-02 9.125000E-01 -7.527130E-01
8.125000E-02 9.187500E-01 -7.379372E-01
8.750000E-02 9.625000E-01 -7.527130E-01
4.375000E-02 9.562500E-01 -7.735533E-01
1.875000E-01 8.750000E-01 -6.056431E-01
2.500000E-01 8.750000E-01 -5.158786E-01
2.500000E-01 9.375000E-01 -5.466751E-01
2.500000E-01 1.000000E+00 -5.584237E-01
1.875000E-01 1.000000E+00 -6.554547E-01
1.625000E-01 9.125000E-01 -6.612551E-01
2.062500E-01 9.187500E-01 -6.078709E-01
2.125000E-01 9.625000E-01 -6.140084E-01
1.687500E-01 9.562500E-01 -6.735279E-01
0.000000E+00 7.500000E-01 -5.584237E-01
6.250000E-02 7.500000E-01 -5.466751E-01
1.250000E-01 7.500000E-01 -5.158786E-01
1.250000E-01 8.125000E-01 -6.056431E-01
0.000000E+00 8.125000E-01 -6.554547E-01
3.750000E-02 7.875000E-01 -6.140084E-01
8.125000E-02 7.937500E-01 -6.078709E-01
8.750000E-02 8.375000E-01 -6.612551E-01
4.375000E-02 8.312500E-01 -6.735279E-01
1.875000E-01 7.500000E-01 -4.635628E-01
2.500000E-01 7.500000E-01 -3.946653E-01
2.500000E-01 8.125000E-01 -4.635628E-01
1.625000E-01 7.875000E-01 -5.395293E-01
2.062500E-01 7.937500E-01 -5.007036E-01
2.125000E-01 8.375000E-01 -5.395293E-01
1.687500E-01 8.312500E-01 -5.864671E-01
3.125000E-01 8.750000E-01 -4.046090E-01
3.750000E-01 8.750000E-01 -2.789145E-01
3.750000E-01 9.375000E-01 -2.956771E-01
3.750000E-01 1.000000E+00 -3.019257E-01
3.125000E-01 1.000000E+00 -4.377689E-01
2.875000E-01 9.125000E-01 -4.690960E-01
3.312500E-01 9.187500E-01 -3.852384E-01
3.375000E-01 9.625000E-01 -3.818290E-01
2.937500E-01 9.562500E-01 -4.709919E-01
4.375000E-01 8.750000E-01 -1.419310E-01
5.000000E-01 8.750000E-01 5.601756E-04
5.000000E-01 9.375000E-01 3.772842E-04
5.000000E-01 1.000000E+00 5.778984E-04
4.375000E-01 1.000000E+00 -1.534052E-01
4.125000E-01 9.125000E-01 -2.054849E-01
4.562500E-01 9.187500E-01 -1.039164E-01
4.625000E-01 9.625000E-01 -9.148282E-02
4.187500E-01 9.562500E-01 -1.967216E-01
3.125000E-01 7.500000E-01 -3.097943E-01
3.750000E-01 7.500000E-01 -2.132965E-01
3.750000E-01 8.125000E-01 -2.508485E-01
2.875000E-01 7.875000E-01 -3.828292E-01
3.312500E-01 7.937500E-01 -3.172377E-01
3.375000E-01 8.375000E-01 -3.356065E-01
2.937500E-01 8.312500E-01 -4.100536E-01
4.375000E-01 7.500000E-01 -1.087972E-01
5.000000E-01 7.500000E-01 6.068752E-04
5.000000E-01 8.125000E-01 1.105939E-04
4.125000E-01 7.875000E-01 -1.677849E-01
4.562500E-01 7.937500E-01 -8.541650E-02
4.625000E-01 8.375000E-01 -8.053821E-02
4.187500E-01 8.312500E-01 -1.711590E-01
0.000000E+00 6.250000E-01 -3.019257E-01
6.250000E-02 6.250000E-01 -2.956771E-01
1.250000E-01 6.250000E-01 -2.789145E-01
1.250000E-01 6.875000E-01 -4.046090E-01
0.000000E+00 6.875000E-01 -4.377689E-01
3.750000E-02 6.625000E-01 -3.818290E-01
8.125000E-02 6.687500E-01 -3.852384E-01
8.750000E-02 7.125000E-01 -4.690960E-01
4.375000E-02 7.062500E-01 -4.709919E-01
1.875000E-01 6.250000E-01 -2.508485E-01
2.500000E-01 6.250000E-01 -2.132965E-01
2.500000E-01 6.875000E-01 -3.097943E-01
1.625000E-01 6.625000E-01 -3.356065E-01
2.062500E-01 6.687500E-01 -3.172377E-01
2.125000E-01 7.125000E-01 -3.828292E-01
1.687500E-01 7.062500E-01 -4.100536E-01
0.000000E+00 5.000000E-01 5.778984E-04
6.250000E-02 5.000000E-01 3.772842E-04
1.250000E-01 5.000000E-01 5.601756E-04
1.250000E-01 5.625000E-01 -1.419310E-01
0.000000E+00 5.625000E-01 -1.534052E-01
3.750000E-02 5.375000E-01 -9.148282E-02
8.125000E-02 5.437500E-01 -1.039164E-01
8.750000E-02 5.875000E-01 -2.054849E-01
4.375000E-02 5.812500E-01 -1.967216E-01
1.875000E-01 5.000000E-01 1.105939E-04
2.500000E-01 5.000000E-01 6.068752E-04
2.500000E-01 5.625000E-01 -1.087972E-01
1.625000E-01 5.375000E-01 -8.053821E-02
2.062500E-01 5.437500E-01 -8.541650E-02
2.125000E-01 5.875000E-01 -1.677849E-01
1.687500E-01 5.812500E-01 -1.711590E-01
3.125000E-01 6.250000E-01 -1.677385E-01
3.750000E-01 6.250000E-01 -1.151243E-01
3.750000E-01 6.875000E-01 -1.677385E-01
2.875000E-01 6.625000E-01 -2.381999E-01
3.312500E-01 6.687500E-01 -2.008557E-01
3.375000E-01 7.125000E-01 -2.381999E-01
2.937500E-01 7.062500E-01 -2.866039E-01
4.375000E-01 6.250000E-01 -5.901631E-02
5.000000E-01 6.250000E-01 6.457371E-04
5.000000E-01 6.875000E-01 -7.845632E-05
4.125000E-01 6.625000E-01 -1.044540E-01
4.562500E-01 6.687500E-01 -5.382381E-02
4.625000E-01 7.125000E-01 -5.723930E-02
4.187500E-01 7.062500E-01 -1.194500E-01
3.125000E-01 5.000000E-01 -7.845632E-05
3.750000E-01 5.000000E-01 6.457371E-04
3.750000E-01 5.625000E-01 -5.901631E-02
2.875000E-01 5.375000E-01 -5.723930E-02
3.312500E-01 5.437500E-01 -5.382381E-02
3.375000E-01 5.875000E-01 -1.044540E-01
2.937500E-01 5.812500E-01 -1.194500E-01
4.375000E-01 5.000000E-01 -1.771038E-04
5.000000E-01 5.000000E-01 6.605664E-04
5.000000E-01 5.625000E-01 -1.771038E-04
4.125000E-01 5.375000E-01 -2.514580E-02
4.562500E-01 5.437500E-01 -1.396023E-02
4.625000E-01 5.875000E-01 -2.514580E-02
4.187500E-01 5.812500E-01 -4.947693E-02
5.625000E-01 8.750000E-01 1.424045E-01
6.250000E-01 8.750000E-01 2.799998E-01
6.250000E-01 9.375000E-01 2.964209E-01
6.250000E-01 1.000000E+00 3.030390E-01
5.625000E-01 1.000000E+00 1.543575E-01
5.375000E-01 9.125000E-01 8.945572E-02
5.812500E-01 9.187500E-01 1.932731E-01
5.875000E-01 9.625000E-01 2.128364E-01
5.437500E-01 9.562500E-01 1.075420E-01
6.875000E-01 8.750000E-01 4.051100E-01
7.500000E-01 8.750000E-01 5.168602E-01
7.500000E-01 9.375000E-01 5.473794E-01
7.500000E-01 1.000000E+00 5.594053E-01
6.875000E-01 1.000000E+00 4.386650E-01
6.625000E-01 9.125000E-01 3.708251E-01
7.062500E-01 9.187500E-01 4.610847E-01
7.125000E-01 9.625000E-01 4.847968E-01
6.687500E-01 9.562500E-01 3.954789E-01
5.625000E-01 7.500000E-01 1.088238E-01
6.250000E-01 7.500000E-01 2.144780E-01
6.250000E-01 8.125000E-01 2.511080E-01
5.375000E-01 7.875000E-01 7.286076E-02
5.812500E-01 7.937500E-01 1.594653E-01
5.875000E-01 8.375000E-01 1.868443E-01
5.437500E-01 8.312500E-01 9.384640E-02
6.875000E-01 7.500000E-01 3.099379E-01
7.500000E-01 7.500000E-01 3.957588E-01
7.500000E-01 8.125000E-01 4.639319E-01
6.625000E-01 7.875000E-01 3.024712E-01
7.062500E-01 7.937500E-01 3.801268E-01
7.125000E-01 8.375000E-01 4.258342E-01
6.687500E-01 8.312500E-01 3.446181E-01
8.125000E-01 8.750000E-01 6.061872E-01
8.750000E-01 8.750000E-01 6.750772E-01
8.750000E-01 9.375000E-01 7.150274E-01
8.750000E-01 1.000000E+00 7.306189E-01
8.125000E-01 1.000000E+00 6.562213E-01
7.875000E-01 9.125000E-01 5.957816E-01
8.312500E-01 9.187500E-01 6.587360E-01
8.375000E-01 9.625000E-01 6.829791E-01
7.937500E-01 9.562500E-01 6.232440E-01
9.375000E-01 8.750000E-01 7.150274E-01
1.000000E+00 8.750000E-01 7.306189E-01
1.000000E+00 9.375000E-01 7.738388E-01
1.000000E+00 1.000000E+00 7.903397E-01
9.375000E-01 1.000000E+00 7.738388E-01
9.125000E-01 9.125000E-01 7.300629E-01
9.562500E-01 9.187500E-01 7.561226E-01
9.625000E-01 9.625000E-01 7.771365E-01
9.187500E-01 9.562500E-01 7.561226E-01
8.125000E-01 7.500000E-01 4.639319E-01
8.750000E-01 7.500000E-01 5.168602E-01
8.750000E-01 8.125000E-01 6.061872E-01
7.875000E-01 7.875000E-01 4.860925E-01
8.312500E-01 7.937500E-01 5.429780E-01
8.375000E-01 8.375000E-01 6.000478E-01
7.937500E-01 8.312500E-01 5.429780E-01
9.375000E-01 7.500000E-01 5.473794E-01
1.000000E+00 7.500000E-01 5.594053E-01
1.000000E+00 8.125000E-01 6.562213E-01
9.125000E-01 7.875000E-01 5.957816E-01
9.562500E-01 7.937500E-01 6.232440E-01
9.625000E-01 8.375000E-01 6.829791E-01
9.187500E-01 8.312500E-01 6.587360E-01
5.625000E-01 6.250000E-01 5.875932E-02
6.250000E-01 6.250000E-01 1.163856E-01
6.250000E-01 6.875000E-01 1.676582E-01
5.375000E-01 6.625000E-01 4.526165E-02
5.812500E-01 6.687500E-01 1.014684E-01
5.875000E-01 7.125000E-01 1.324986E-01
5.437500E-01 7.062500E-01 6.595356E-02
6.875000E-01 6.250000E-01 1.676582E-01
7.500000E-01 6.250000E-01 2.144780E-01
7.500000E-01 6.875000E-01 3.099379E-01
6.625000E-01 6.625000E-01 1.881530E-01
7.062500E-01 6.687500E-01 2.413799E-01
7.125000E-01 7.125000E-01 3.021289E-01
6.687500E-01 7.062500E-01 2.413799E-01
5.625000E-01 5.000000E-01 -1.771038E-04
6.250000E-01 5.000000E-01 6.457371E-04
6.250000E-01 5.625000E-01 5.875932E-02
5.375000E-01 5.375000E-01 1.084822E-02
5.812500E-01 5.437500E-01 2.809963E-02
5.875000E-01 5.875000E-01 5.806042E-02
5.437500E-01 5.812500E-01 2.809963E-02
6.875000E-01 5.000000E-01 -7.845632E-05
7.500000E-01 5.000000E-01 6.068752E-04
7.500000E-01 5.625000E-01 1.088238E-01
6.625000E-01 5.375000E-01 4.526165E-02
7.062500E-01 5.437500E-01 6.595356E-02
7.125000E-01 5.875000E-01 1.324986E-01
6.687500E-01 5.812500E-01 1.014684E-01
8.125000E-01 6.250000E-01 2.511080E-01
8.750000E-01 6.250000E-01 2.799998E-01
8.750000E-01 6.875000E-01 4.051100E-01
7.875000E-01 6.625000E-01 3.024712E-01
8.312500E-01 6.687500E-01 3.446181E-01
8.375000E-01 7.125000E-01 4.258342E-01
7.937500E-01 7.062500E-01 3.801268E-01
9.375000E-01 6.250000E-01 2.964209E-01
1.000000E+00 6.250000E-01 3.030390E-01
1.000000E+00 6.875000E-01 4.386650E-01
9.125000E-01 6.625000E-01 3.708251E-01
9.562500E-01 6.687500E-01 3.954789E-01
9.625000E-01 7.125000E-01 4.847968E-01
9.187500E-01 7.062500E-01 4.610847E-01
8.125000E-01 5.000000E-01 1.105939E-04
8.750000E-01 5.000000E-01 5.601756E-04
8.750000E-01 5.625000E-01 1.424045E-01
7.875000E-01 5.375000E-01 7.286076E-02
8.312500E-01 5.437500E-01 9.384640E-02
8.375000E-01 5.875000E-01 1.868443E-01
7.937500E-01 5.812500E-01 1.594653E-01
9.375000E-01 5.000000E-01 3.772842E-04
1.000000E+00 5.000000E-01 5.778984E-04
1.000000E+00 5.625000E-01 1.543575E-01
9.125000E-01 5.375000E-01 8.945572E-02
9.562500E-01 5.437500E-01 1.075420E-01
9.625000E-01 5.875000E-01 2.128364E-01
9.187500E-01 5.812500E-01 1.932731E-01
0.000000E+00 3.750000E-01 3.030390E-01
6.250000E-02 3.750000E-01 2.964209E-01
[...]
CELL_DATA 896
SCALARS sol float 1
LOOKUP_TABLE default
-7.323440E-01
-7.350248E-01
-7.520002E-01
-7.059490E-01
-7.547345E-01
-7.088740E-01
-7.665530E-01
-6.862925E-01
-6.830690E-01
-7.547345E-01
-7.088740E-01
-6.833133E-01
-7.791491E-01
-6.476637E-01
-6.475513E-01
-7.665530E-01
-7.350248E-01
-6.833133E-01
-6.470530E-01
-7.791491E-01
-6.318024E-01
-6.092956E-01
-6.249230E-01
-7.520002E-01
-7.323440E-01
-6.470530E-01
-6.830690E-01
-6.221237E-01
-5.895181E-01
-5.730357E-01
-5.764642E-01
-7.059490E-01
-6.249230E-01
-6.221237E-01
-6.475513E-01
-5.772132E-01
-5.568082E-01
-5.253636E-01
-5.536837E-01
-6.862925E-01
-5.764642E-01
-5.772132E-01
-6.318024E-01
-5.422333E-01
-5.105499E-01
-4.890615E-01
-4.955876E-01
-5.063236E-01
-6.476637E-01
-5.568082E-01
-5.536837E-01
-5.422333E-01
-5.895181E-01
-5.012653E-01
-4.631945E-01
-4.301966E-01
-4.417754E-01
-4.631650E-01
-6.092956E-01
-5.105499E-01
-5.063236E-01
-5.012653E-01
-5.730357E-01
-4.529772E-01
-4.196478E-01
-4.435137E-01
-4.126864E-01
-3.738412E-01
-4.188152E-01
-4.631945E-01
-4.955876E-01
-4.631650E-01
-4.529772E-01
-5.253636E-01
-4.136858E-01
-3.562539E-01
-3.834230E-01
-3.542482E-01
-3.264773E-01
-3.700402E-01
-4.196478E-01
-4.435137E-01
-4.417754E-01
-4.188152E-01
-4.136858E-01
-4.890615E-01
-3.624296E-01
-3.199433E-01
-3.397100E-01
-3.542992E-01
-2.647748E-01
-3.366204E-01
-3.562539E-01
-3.834230E-01
-4.126864E-01
-3.700402E-01
-3.624296E-01
-4.301966E-01
-3.303545E-01
-2.600255E-01
-2.884565E-01
-3.012309E-01
-2.173508E-01
-2.326278E-01
-2.801095E-01
-3.199433E-01
-3.397100E-01
-3.542992E-01
-3.542482E-01
-3.366204E-01
-3.303545E-01
-3.738412E-01
-2.781994E-01
-2.087768E-01
-2.336407E-01
-2.604609E-01
-1.472032E-01
-1.687076E-01
-2.537635E-01
-2.600255E-01
-2.884565E-01
-3.012309E-01
-3.264773E-01
-2.801095E-01
-2.781994E-01
-2.418865E-01
-1.973348E-01
-1.504441E-01
-1.965975E-01
-2.106433E-01
-1.307069E-01
-8.143669E-02
-2.064116E-01
-2.087768E-01
-2.326278E-01
-2.336407E-01
-2.604609E-01
-2.647748E-01
-2.537635E-01
-2.418865E-01
-2.022647E-01
-1.312094E-01
-8.176241E-02
-1.414535E-01
-1.632929E-01
-6.500730E-02
-3.017588E-02
-1.668283E-01
-1.504441E-01
-1.973348E-01
-1.687076E-01
-1.965975E-01
-2.106433E-01
-2.173508E-01
-2.064116E-01
-2.022647E-01
-1.612395E-01
-1.123712E-01
-7.396969E-02
-3.432630E-02
-1.206662E-01
-1.471812E-01
3.616574E-02
-1.305475E-01
-8.176241E-02
-1.312094E-01
-1.307069E-01
-1.414535E-01
-1.632929E-01
-1.472032E-01
-1.668283E-01
-1.612395E-01
-1.291056E-01
-5.528137E-02
-2.662248E-02
3.013106E-02
-6.453561E-02
-9.516217E-02
8.749247E-02
6.579168E-02
-9.257593E-02
-3.432630E-02
-7.396969E-02
-1.123712E-01
-6.500730E-02
-1.206662E-01
-1.471812E-01
-8.143669E-02
-1.305475E-01
-1.291056E-01
-9.286488E-02
-2.823301E-02
3.150572E-02
7.747346E-02
-5.514321E-02
-7.683770E-02
1.582453E-01
1.300903E-01
-7.243137E-02
3.013106E-02
-2.662248E-02
-5.528137E-02
-3.017588E-02
-6.453561E-02
-9.516217E-02
-9.257593E-02
-9.286488E-02
-7.453919E-02
2.452608E-02
7.893702E-02
5.560592E-02
1.417111E-01
-1.890363E-02
-3.704719E-02
1.712172E-01
2.234109E-01
-3.739813E-02
7.747346E-02
6.579168E-02
3.150572E-02
-2.823301E-02
3.616574E-02
-5.514321E-02
-7.683770E-02
-7.243137E-02
-7.453919E-02
-4.454635E-02
6.076380E-02
1.410317E-01
1.087241E-01
2.052258E-01
2.216066E-02
-1.775218E-02
2.341768E-01
2.707654E-01
-2.783879E-02
1.417111E-01
7.893702E-02
1.300903E-01
5.560592E-02
2.452608E-02
8.749247E-02
-1.890363E-02
-3.704719E-02
-3.739813E-02
-4.454635E-02
-2.952765E-02
5.846140E-02
1.137166E-01
1.467187E-01
2.030829E-01
2.565646E-01
3.704558E-02
1.527631E-02
3.316463E-01
-8.225722E-03
2.052258E-01
1.410317E-01
1.712172E-01
1.087241E-01
6.076380E-02
1.582453E-01
2.216066E-02
-1.775218E-02
-2.783879E-02
-2.952765E-02
-1.309438E-02
1.024253E-01
1.609223E-01
1.991392E-01
2.393174E-01
3.157486E-01
7.089453E-02
3.488890E-02
3.790610E-01
3.542417E-01
9.522755E-03
2.565646E-01
2.030829E-01
1.467187E-01
2.341768E-01
1.137166E-01
5.846140E-02
2.234109E-01
3.704558E-02
1.527631E-02
-8.225722E-03
-1.309438E-02
-4.492257E-03
9.997351E-02
1.519334E-01
2.083504E-01
2.919086E-01
3.519783E-01
6.849645E-02
2.916823E-02
4.396469E-01
4.091296E-01
1.292358E-02
3.157486E-01
2.393174E-01
1.991392E-01
2.707654E-01
1.609223E-01
1.024253E-01
7.089453E-02
3.488890E-02
9.522755E-03
-4.492257E-03
3.777227E-03
1.338750E-01
1.715449E-01
2.560191E-01
3.432426E-01
2.993991E-01
4.123400E-01
9.220442E-02
4.830646E-02
4.471201E-01
4.942890E-01
2.234916E-02
3.519783E-01
3.542417E-01
2.919086E-01
2.083504E-01
3.316463E-01
1.519334E-01
9.997351E-02
6.849645E-02
2.916823E-02
1.292358E-02
3.777227E-03
3.777227E-03
1.285040E-01
2.078387E-01
2.756290E-01
3.918541E-01
3.424054E-01
4.610183E-01
7.773510E-02
3.808656E-02
4.977536E-01
5.305272E-01
1.292358E-02
4.123400E-01
3.432426E-01
4.091296E-01
2.993991E-01
2.560191E-01
3.790610E-01
1.715449E-01
1.338750E-01
9.220442E-02
4.830646E-02
2.234916E-02
3.777227E-03
-4.492257E-03
1.573989E-01
2.552653E-01
1.990637E-01
3.308453E-01
3.835264E-01
4.492682E-01
5.084414E-01
7.773510E-02
4.830646E-02
5.766762E-01
9.522755E-03
4.610183E-01
3.918541E-01
4.471201E-01
3.424054E-01
2.756290E-01
4.396469E-01
2.078387E-01
1.285040E-01
7.773510E-02
3.808656E-02
1.292358E-02
-4.492257E-03
-1.309438E-02
1.573989E-01
2.844822E-01
2.236376E-01
3.619412E-01
4.232977E-01
4.688755E-01
5.533404E-01
9.220442E-02
2.916823E-02
6.129569E-01
5.888017E-01
-8.225722E-03
5.084414E-01
4.492682E-01
3.835264E-01
4.977536E-01
3.308453E-01
2.552653E-01
4.942890E-01
1.990637E-01
1.573989E-01
7.773510E-02
4.830646E-02
9.522755E-03
-1.309438E-02
-2.952765E-02
1.285040E-01
1.990637E-01
2.616296E-01
3.359419E-01
4.132725E-01
5.079234E-01
5.729430E-01
6.849645E-02
3.488890E-02
6.541482E-01
6.259206E-01
-2.783879E-02
5.533404E-01
4.688755E-01
4.232977E-01
5.305272E-01
3.619412E-01
2.844822E-01
2.236376E-01
1.573989E-01
9.220442E-02
2.916823E-02
-8.225722E-03
-2.952765E-02
-4.454635E-02
1.338750E-01
2.078387E-01
2.844822E-01
3.359419E-01
4.485944E-01
5.553418E-01
4.976675E-01
6.202350E-01
7.089453E-02
1.527631E-02
6.549864E-01
6.899398E-01
-3.739813E-02
5.729430E-01
5.888017E-01
5.079234E-01
4.132725E-01
5.766762E-01
3.359419E-01
2.616296E-01
1.990637E-01
1.285040E-01
6.849645E-02
3.488890E-02
-2.783879E-02
-4.454635E-02
-7.453919E-02
9.997351E-02
1.715449E-01
2.552653E-01
3.619412E-01
4.485944E-01
5.830710E-01
5.240162E-01
6.466668E-01
3.704558E-02
-1.775218E-02
6.855808E-01
7.095418E-01
-7.243137E-02
6.202350E-01
5.553418E-01
6.259206E-01
4.976675E-01
4.485944E-01
6.129569E-01
3.359419E-01
2.844822E-01
2.078387E-01
1.338750E-01
7.089453E-02
1.527631E-02
-3.739813E-02
-7.453919E-02
-9.286488E-02
1.024253E-01
1.519334E-01
2.756290E-01
4.132725E-01
3.308453E-01
4.976675E-01
5.620013E-01
6.271041E-01
6.829469E-01
2.216066E-02
-3.704719E-02
7.339230E-01
-9.257593E-02
6.466668E-01
5.830710E-01
6.549864E-01
5.240162E-01
4.485944E-01
6.541482E-01
3.619412E-01
2.552653E-01
1.715449E-01
9.997351E-02
3.704558E-02
-1.775218E-02
-7.243137E-02
-9.286488E-02
-1.291056E-01
5.846140E-02
1.609223E-01
2.560191E-01
4.232977E-01
3.424054E-01
5.079234E-01
5.830710E-01
6.271041E-01
7.067225E-01
-1.890363E-02
-7.683770E-02
7.535268E-01
7.337376E-01
-1.305475E-01
6.829469E-01
6.271041E-01
5.620013E-01
6.855808E-01
4.976675E-01
4.132725E-01
6.899398E-01
3.308453E-01
2.756290E-01
1.519334E-01
1.024253E-01
2.216066E-02
-3.704719E-02
-9.257593E-02
-1.291056E-01
-1.612395E-01
6.076380E-02
2.083504E-01
1.137166E-01
2.993991E-01
3.835264E-01
4.688755E-01
5.553418E-01
6.466668E-01
7.067225E-01
-5.514321E-02
-9.516217E-02
7.690326E-01
7.474360E-01
-1.668283E-01
7.067225E-01
6.271041E-01
5.830710E-01
7.095418E-01
5.079234E-01
4.232977E-01
3.424054E-01
2.560191E-01
1.609223E-01
5.846140E-02
-1.890363E-02
-7.683770E-02
-1.305475E-01
-1.612395E-01
-2.022647E-01
2.452608E-02
1.991392E-01
1.087241E-01
2.919086E-01
3.918541E-01
4.492682E-01
5.729430E-01
6.829469E-01
6.202350E-01
7.337376E-01
-6.453561E-02
-1.471812E-01
7.631272E-01
7.804383E-01
-2.064116E-01
7.067225E-01
7.337376E-01
6.466668E-01
5.553418E-01
7.339230E-01
4.688755E-01
3.835264E-01
2.993991E-01
2.083504E-01
1.137166E-01
6.076380E-02
-5.514321E-02
-9.516217E-02
-1.668283E-01
-2.022647E-01
-2.418865E-01
5.560592E-02
-2.823301E-02
1.467187E-01
2.393174E-01
3.432426E-01
4.610183E-01
5.533404E-01
6.855808E-01
6.259206E-01
7.339230E-01
-1.206662E-01
-1.632929E-01
7.690326E-01
7.804383E-01
-2.537635E-01
7.337376E-01
6.829469E-01
7.474360E-01
6.202350E-01
5.729430E-01
7.535268E-01
4.492682E-01
3.918541E-01
2.919086E-01
1.991392E-01
1.087241E-01
2.452608E-02
-6.453561E-02
-1.471812E-01
-2.064116E-01
-2.418865E-01
-2.781994E-01
3.150572E-02
-5.528137E-02
1.410317E-01
2.030829E-01
3.519783E-01
5.084414E-01
4.123400E-01
5.888017E-01
6.549864E-01
7.095418E-01
7.535268E-01
-1.414535E-01
-2.106433E-01
-2.801095E-01
7.339230E-01
6.855808E-01
7.631272E-01
6.259206E-01
5.533404E-01
7.690326E-01
4.610183E-01
3.432426E-01
2.393174E-01
1.467187E-01
5.560592E-02
-2.823301E-02
-1.206662E-01
-1.632929E-01
-2.537635E-01
-2.781994E-01
-3.303545E-01
7.893702E-02
-2.662248E-02
-1.123712E-01
2.052258E-01
3.157486E-01
4.977536E-01
4.091296E-01
5.766762E-01
6.541482E-01
6.899398E-01
-1.965975E-01
-2.604609E-01
-3.366204E-01
7.535268E-01
7.095418E-01
6.549864E-01
7.690326E-01
5.888017E-01
5.084414E-01
7.804383E-01
4.123400E-01
3.519783E-01
2.030829E-01
1.410317E-01
3.150572E-02
-5.528137E-02
-1.414535E-01
-2.106433E-01
-2.801095E-01
-3.303545E-01
-3.624296E-01
7.747346E-02
-7.396969E-02
-1.312094E-01
2.565646E-01
1.417111E-01
3.542417E-01
4.471201E-01
5.305272E-01
6.129569E-01
-2.336407E-01
-3.012309E-01
-3.700402E-01
6.899398E-01
6.541482E-01
7.804383E-01
5.766762E-01
4.977536E-01
4.091296E-01
3.157486E-01
2.052258E-01
7.893702E-02
-2.662248E-02
-1.123712E-01
-1.965975E-01
-2.604609E-01
-3.366204E-01
-3.624296E-01
-4.136858E-01
3.013106E-02
-8.176241E-02
-1.973348E-01
2.341768E-01
1.300903E-01
3.316463E-01
4.396469E-01
4.942890E-01
-2.884565E-01
-3.542992E-01
-4.188152E-01
6.129569E-01
5.305272E-01
4.471201E-01
3.542417E-01
2.565646E-01
1.417111E-01
7.747346E-02
-7.396969E-02
-1.312094E-01
-2.336407E-01
-3.012309E-01
-3.700402E-01
-4.136858E-01
-4.529772E-01
6.579168E-02
-3.432630E-02
-1.504441E-01
-2.087768E-01
1.712172E-01
2.707654E-01
3.790610E-01
-3.397100E-01
-3.834230E-01
-4.631650E-01
4.942890E-01
4.396469E-01
3.316463E-01
2.341768E-01
1.300903E-01
3.013106E-02
-8.176241E-02
-1.973348E-01
-2.884565E-01
-3.542992E-01
-4.188152E-01
-4.529772E-01
-5.012653E-01
3.616574E-02
-6.500730E-02
-1.687076E-01
-2.600255E-01
1.582453E-01
2.234109E-01
-3.562539E-01
-4.435137E-01
-5.063236E-01
3.790610E-01
2.707654E-01
1.712172E-01
6.579168E-02
-3.432630E-02
-1.504441E-01
-2.087768E-01
-3.397100E-01
-3.834230E-01
-4.631650E-01
-5.012653E-01
-5.422333E-01
8.749247E-02
-3.017588E-02
-1.307069E-01
-2.326278E-01
-3.199433E-01
-4.196478E-01
-4.631945E-01
-5.536837E-01
2.234109E-01
1.582453E-01
3.616574E-02
-6.500730E-02
-1.687076E-01
-2.600255E-01
-3.562539E-01
-4.435137E-01
-5.063236E-01
-5.422333E-01
-5.772132E-01
-8.143669E-02
-1.472032E-01
-2.647748E-01
-3.542482E-01
-4.417754E-01
-5.105499E-01
-5.764642E-01
8.749247E-02
-3.017588E-02
-1.307069E-01
-2.326278E-01
-3.199433E-01
-4.196478E-01
-4.631945E-01
-5.536837E-01
-5.772132E-01
-6.221237E-01
-2.173508E-01
-3.264773E-01
-4.126864E-01
-4.955876E-01
-5.568082E-01
-6.249230E-01
-8.143669E-02
-1.472032E-01
-2.647748E-01
-3.542482E-01
-4.417754E-01
-5.105499E-01
-5.764642E-01
-6.221237E-01
-6.470530E-01
-3.738412E-01
-4.301966E-01
-5.253636E-01
-5.895181E-01
-6.475513E-01
-2.173508E-01
-3.264773E-01
-4.126864E-01
-4.955876E-01
-5.568082E-01
-6.249230E-01
-6.470530E-01
-6.833133E-01
-4.890615E-01
-5.730357E-01
-6.318024E-01
-6.830690E-01
-3.738412E-01
-4.301966E-01
-5.253636E-01
-5.895181E-01
-6.475513E-01
-6.833133E-01
-7.088740E-01
-6.092956E-01
-6.476637E-01
-7.059490E-01
-4.890615E-01
-5.730357E-01
-6.318024E-01
-6.830690E-01
-7.088740E-01
-7.350248E-01
-6.862925E-01
-7.323440E-01
-6.092956E-01
-6.476637E-01
-7.059490E-01
-7.350248E-01
-7.547345E-01
-7.520002E-01
-6.862925E-01
-7.323440E-01
-7.547345E-01
-7.665530E-01
-7.520002E-01
-7.665530E-01
-7.791491E-01
-7.791491E-01
