# vtk DataFile Version 2.0
Grille
ASCII
DATASET POLYDATA
POINTS 481 float
0.000000E+00 8.750000E-01 -8.614172E-01
6.250000E-02 8.750000E-01 -8.431639E-01
1.250000E-01 8.750000E-01 -7.957752E-01
1.250000E-01 9.375000E-01 -8.431639E-01
1.250000E-01 1.000000E+00 -8.614172E-01
6.250000E-02 1.000000E+00 -9.127407E-01
0.000000E+00 1.000000E+00 -9.329261E-01
0.000000E+00 9.375000E-01 -9.127407E-01
3.750000E-02 9.125000E-01 -8.883406E-01
8.125000E-02 9.187500E-01 -8.709067E-01
8.750000E-02 9.625000E-01 -8.883406E-01
4.375000E-02 9.562500E-01 -9.129300E-01
1.875000E-01 8.750000E-01 -7.148140E-01
2.500000E-01 8.750000E-01 -6.089011E-01
2.500000E-01 9.375000E-01 -6.452377E-01
2.500000E-01 1.000000E+00 -6.590991E-01
1.875000E-01 1.000000E+00 -7.735863E-01
1.625000E-01 9.125000E-01 -7.804302E-01
2.062500E-01 9.187500E-01 -7.174421E-01
2.125000E-01 9.625000E-01 -7.246839E-01
1.687500E-01 9.562500E-01 -7.949109E-01
0.000000E+00 7.500000E-01 -6.590991E-01
6.250000E-02 7.500000E-01 -6.452377E-01
1.250000E-01 7.500000E-01 -6.089011E-01
1.250000E-01 8.125000E-01 -7.148140E-01
0.000000E+00 8.125000E-01 -7.735863E-01
3.750000E-02 7.875000E-01 -7.246839E-01
8.125000E-02 7.937500E-01 -7.174421E-01
8.750000E-02 8.375000E-01 -7.804302E-01
4.375000E-02 8.312500E-01 -7.949109E-01
1.875000E-01 7.500000E-01 -5.471741E-01
2.500000E-01 7.500000E-01 -4.658820E-01
2.500000E-01 8.125000E-01 -5.471741E-01
1.625000E-01 7.875000E-01 -6.368066E-01
2.062500E-01 7.937500E-01 -5.909960E-01
2.125000E-01 8.375000E-01 -6.368066E-01
1.687500E-01 8.312500E-01 -6.921885E-01
3.125000E-01 8.750000E-01 -4.776147E-01
3.750000E-01 8.750000E-01 -3.293082E-01
3.750000E-01 9.375000E-01 -3.490863E-01
3.750000E-01 1.000000E+00 -3.564582E-01
3.125000E-01 1.000000E+00 -5.167397E-01
2.875000E-01 9.125000E-01 -5.537027E-01
3.312500E-01 9.187500E-01 -4.547590E-01
3.375000E-01 9.625000E-01 -4.507364E-01
2.937500E-01 9.562500E-01 -5.559397E-01
4.375000E-01 8.750000E-01 -1.676821E-01
5.000000E-01 8.750000E-01 4.426381E-04
5.000000E-01 9.375000E-01 2.269843E-04
5.000000E-01 1.000000E+00 4.644412E-04
4.375000E-01 1.000000E+00 -1.812202E-01
4.125000E-01 9.125000E-01 -2.426691E-01
4.562500E-01 9.187500E-01 -1.228284E-01
4.625000E-01 9.625000E-01 -1.081581E-01
4.187500E-01 9.562500E-01 -2.323294E-01
3.125000E-01 7.500000E-01 -3.657430E-01
3.750000E-01 7.500000E-01 -2.518856E-01
3.750000E-01 8.125000E-01 -2.961933E-01
2.875000E-01 7.875000E-01 -4.519169E-01
3.312500E-01 7.937500E-01 -3.745253E-01
3.375000E-01 8.375000E-01 -3.961988E-01
2.937500E-01 8.312500E-01 -4.840390E-01
4.375000E-01 7.500000E-01 -1.285873E-01
5.000000E-01 7.500000E-01 4.980106E-04
5.000000E-01 8.125000E-01 -8.767781E-05
4.125000E-01 7.875000E-01 -1.981869E-01
4.562500E-01 7.937500E-01 -1.010004E-01
4.625000E-01 8.375000E-01 -9.524479E-02
4.187500E-01 8.312500E-01 -2.021683E-01
0.000000E+00 6.250000E-01 -3.564582E-01
6.250000E-02 6.250000E-01 -3.490863E-01
1.250000E-01 6.250000E-01 -3.293082E-01
1.250000E-01 6.875000E-01 -4.776147E-01
0.000000E+00 6.875000E-01 -5.167397E-01
3.750000E-02 6.625000E-01 -4.507364E-01
8.125000E-02 6.687500E-01 -4.547590E-01
8.750000E-02 7.125000E-01 -5.537027E-01
4.375000E-02 7.062500E-01 -5.559397E-01
1.875000E-01 6.250000E-01 -2.961933E-01
2.500000E-01 6.250000E-01 -2.518856E-01
2.500000E-01 6.875000E-01 -3.657430E-01
1.625000E-01 6.625000E-01 -3.961988E-01
2.062500E-01 6.687500E-01 -3.745253E-01
2.125000E-01 7.125000E-01 -4.519169E-01
1.687500E-01 7.062500E-01 -4.840390E-01
0.000000E+00 5.000000E-01 4.644412E-04
6.250000E-02 5.000000E-01 2.269843E-04
1.250000E-01 5.000000E-01 4.426381E-04
1.250000E-01 5.625000E-01 -1.676821E-01
0.000000E+00 5.625000E-01 -1.812202E-01
3.750000E-02 5.375000E-01 -1.081581E-01
8.125000E-02 5.437500E-01 -1.228284E-01
8.750000E-02 5.875000E-01 -2.426691E-01
4.375000E-02 5.812500E-01 -2.323294E-01
1.875000E-01 5.000000E-01 -8.767781E-05
2.500000E-01 5.000000E-01 4.980106E-04
2.500000E-01 5.625000E-01 -1.285873E-01
1.625000E-01 5.375000E-01 -9.524479E-02
2.062500E-01 5.437500E-01 -1.010004E-01
2.125000E-01 5.875000E-01 -1.981869E-01
1.687500E-01 5.812500E-01 -2.021683E-01
3.125000E-01 6.250000E-01 -1.981317E-01
3.750000E-01 6.250000E-01 -1.360524E-01
3.750000E-01 6.875000E-01 -1.981317E-01
2.875000E-01 6.625000E-01 -2.812690E-01
3.312500E-01 6.687500E-01 -2.372064E-01
3.375000E-01 7.125000E-01 -2.812690E-01
2.937500E-01 7.062500E-01 -3.383811E-01
4.375000E-01 6.250000E-01 -6.985068E-02
5.000000E-01 6.250000E-01 5.442522E-04
5.000000E-01 6.875000E-01 -3.103217E-04
4.125000E-01 6.625000E-01 -1.234627E-01
4.562500E-01 6.687500E-01 -6.372405E-02
4.625000E-01 7.125000E-01 -6.775421E-02
4.187500E-01 7.062500E-01 -1.411567E-01
3.125000E-01 5.000000E-01 -3.103217E-04
3.750000E-01 5.000000E-01 5.442522E-04
3.750000E-01 5.625000E-01 -6.985068E-02
2.875000E-01 5.375000E-01 -6.775421E-02
3.312500E-01 5.437500E-01 -6.372405E-02
3.375000E-01 5.875000E-01 -1.234627E-01
2.937500E-01 5.812500E-01 -1.411567E-01
4.375000E-01 5.000000E-01 -4.263991E-04
5.000000E-01 5.000000E-01 5.619135E-04
5.000000E-01 5.625000E-01 -4.263991E-04
4.125000E-01 5.375000E-01 -2.988694E-02
4.562500E-01 5.437500E-01 -1.668903E-02
4.625000E-01 5.875000E-01 -2.988694E-02
4.187500E-01 5.812500E-01 -5.859534E-02
5.625000E-01 8.750000E-01 1.678042E-01
6.250000E-01 8.750000E-01 3.301521E-01
6.250000E-01 9.375000E-01 3.495276E-01
6.250000E-01 1.000000E+00 3.573368E-01
5.625000E-01 1.000000E+00 1.819076E-01
5.375000E-01 9.125000E-01 1.053300E-01
5.812500E-01 9.187500E-01 2.278242E-01
5.875000E-01 9.625000E-01 2.509068E-01
5.437500E-01 9.562500E-01 1.266700E-01
6.875000E-01 8.750000E-01 4.777693E-01
7.500000E-01 8.750000E-01 6.096226E-01
7.500000E-01 9.375000E-01 6.456324E-01
7.500000E-01 1.000000E+00 6.598220E-01
6.875000E-01 1.000000E+00 5.173607E-01
6.625000E-01 9.125000E-01 4.373165E-01
7.062500E-01 9.187500E-01 5.438137E-01
7.125000E-01 9.625000E-01 5.717917E-01
6.687500E-01 9.562500E-01 4.664055E-01
5.625000E-01 7.500000E-01 1.281827E-01
6.250000E-01 7.500000E-01 2.528434E-01
6.250000E-01 8.125000E-01 2.960630E-01
5.375000E-01 7.875000E-01 8.574981E-02
5.812500E-01 7.937500E-01 1.879344E-01
5.875000E-01 8.375000E-01 2.202387E-01
5.437500E-01 8.312500E-01 1.105105E-01
6.875000E-01 7.500000E-01 3.654762E-01
7.500000E-01 7.500000E-01 4.667357E-01
7.500000E-01 8.125000E-01 5.471729E-01
6.625000E-01 7.875000E-01 3.566661E-01
7.062500E-01 7.937500E-01 4.482918E-01
7.125000E-01 8.375000E-01 5.022219E-01
6.687500E-01 8.312500E-01 4.063949E-01
8.125000E-01 8.750000E-01 7.150195E-01
8.750000E-01 8.750000E-01 7.963023E-01
8.750000E-01 9.375000E-01 8.434397E-01
8.750000E-01 1.000000E+00 8.618362E-01
8.125000E-01 1.000000E+00 7.740546E-01
7.875000E-01 9.125000E-01 7.027417E-01
8.312500E-01 9.187500E-01 7.770217E-01
8.375000E-01 9.625000E-01 8.056262E-01
7.937500E-01 9.562500E-01 7.351447E-01
9.375000E-01 8.750000E-01 8.434397E-01
1.000000E+00 8.750000E-01 8.618362E-01
1.000000E+00 9.375000E-01 9.128312E-01
1.000000E+00 1.000000E+00 9.323004E-01
9.375000E-01 1.000000E+00 9.128312E-01
9.125000E-01 9.125000E-01 8.611800E-01
9.562500E-01 9.187500E-01 8.919278E-01
9.625000E-01 9.625000E-01 9.167223E-01
9.187500E-01 9.562500E-01 8.919278E-01
8.125000E-01 7.500000E-01 5.471729E-01
8.750000E-01 7.500000E-01 6.096226E-01
8.750000E-01 8.125000E-01 7.150195E-01
7.875000E-01 7.875000E-01 5.733199E-01
8.312500E-01 7.937500E-01 6.404390E-01
8.375000E-01 8.375000E-01 7.077756E-01
7.937500E-01 8.312500E-01 6.404390E-01
9.375000E-01 7.500000E-01 6.456324E-01
1.000000E+00 7.500000E-01 6.598220E-01
1.000000E+00 8.125000E-01 7.740546E-01
9.125000E-01 7.875000E-01 7.027417E-01
9.562500E-01 7.937500E-01 7.351447E-01
9.625000E-01 8.375000E-01 8.056262E-01
9.187500E-01 8.312500E-01 7.770217E-01
5.625000E-01 6.250000E-01 6.911227E-02
6.250000E-01 6.250000E-01 1.371050E-01
6.250000E-01 6.875000E-01 1.976013E-01
5.375000E-01 6.625000E-01 5.318619E-02
5.812500E-01 6.687500E-01 1.195044E-01
5.875000E-01 7.125000E-01 1.561167E-01
5.437500E-01 7.062500E-01 7.760030E-02
6.875000E-01 6.250000E-01 1.976013E-01
7.500000E-01 6.250000E-01 2.528434E-01
7.500000E-01 6.875000E-01 3.654762E-01
6.625000E-01 6.625000E-01 2.217829E-01
7.062500E-01 6.687500E-01 2.845851E-01
7.125000E-01 7.125000E-01 3.562627E-01
6.687500E-01 7.062500E-01 2.845851E-01
5.625000E-01 5.000000E-01 -4.263991E-04
6.250000E-01 5.000000E-01 5.442522E-04
6.250000E-01 5.625000E-01 6.911227E-02
5.375000E-01 5.375000E-01 1.258224E-02
5.812500E-01 5.437500E-01 3.293706E-02
5.875000E-01 5.875000E-01 6.828772E-02
5.437500E-01 5.812500E-01 3.293706E-02
6.875000E-01 5.000000E-01 -3.103217E-04
7.500000E-01 5.000000E-01 4.980106E-04
7.500000E-01 5.625000E-01 1.281827E-01
6.625000E-01 5.375000E-01 5.318619E-02
7.062500E-01 5.437500E-01 7.760030E-02
7.125000E-01 5.875000E-01 1.561167E-01
6.687500E-01 5.812500E-01 1.195044E-01
8.125000E-01 6.250000E-01 2.960630E-01
8.750000E-01 6.250000E-01 3.301521E-01
8.750000E-01 6.875000E-01 4.777693E-01
7.875000E-01 6.625000E-01 3.566661E-01
8.312500E-01 6.687500E-01 4.063949E-01
8.375000E-01 7.125000E-01 5.022219E-01
7.937500E-01 7.062500E-01 4.482918E-01
9.375000E-01 6.250000E-01 3.495276E-01
1.000000E+00 6.250000E-01 3.573368E-01
1.000000E+00 6.875000E-01 5.173607E-01
9.125000E-01 6.625000E-01 4.373165E-01
9.562500E-01 6.687500E-01 4.664055E-01
9.625000E-01 7.125000E-01 5.717917E-01
9.187500E-01 7.062500E-01 5.438137E-01
8.125000E-01 5.000000E-01 -8.767781E-05
8.750000E-01 5.000000E-01 4.426381E-04
8.750000E-01 5.625000E-01 1.678042E-01
7.875000E-01 5.375000E-01 8.574981E-02
8.312500E-01 5.437500E-01 1.105105E-01
8.375000E-01 5.875000E-01 2.202387E-01
7.937500E-01 5.812500E-01 1.879344E-01
9.375000E-01 5.000000E-01 2.269843E-04
1.000000E+00 5.000000E-01 4.644412E-04
1.000000E+00 5.625000E-01 1.819076E-01
9.125000E-01 5.375000E-01 1.053300E-01
9.562500E-01 5.437500E-01 1.266700E-01
9.625000E-01 5.875000E-01 2.509068E-01
9.187500E-01 5.812500E-01 2.278242E-01
0.000000E+00 3.750000E-01 3.573368E-01
6.250000E-02 3.750000E-01 3.495276E-01
[...]
CELL_DATA 896
SCALARS sol float 1
LOOKUP_TABLE default
-8.643072E-01
-8.674704E-01
-8.874995E-01
-8.331640E-01
-8.907258E-01
-8.366153E-01
-9.046704E-01
-8.099714E-01
-8.061683E-01
-8.907258E-01
-8.366153E-01
-8.064564E-01
-9.195323E-01
-7.643937E-01
-7.642611E-01
-9.046704E-01
-8.674704E-01
-8.064564E-01
-7.636731E-01
-9.195323E-01
-7.456790E-01
-7.191231E-01
-7.375621E-01
-8.874995E-01
-8.643072E-01
-7.636731E-01
-8.061683E-01
-7.342592E-01
-6.957879E-01
-6.763402E-01
-6.803857E-01
-8.331640E-01
-7.375621E-01
-7.342592E-01
-7.642611E-01
-6.812697E-01
-6.571936E-01
-6.200922E-01
-6.535072E-01
-8.099714E-01
-6.803857E-01
-6.812697E-01
-7.456790E-01
-6.399970E-01
-6.026138E-01
-5.772595E-01
-5.849600E-01
-5.976273E-01
-7.643937E-01
-6.571936E-01
-6.535072E-01
-6.399970E-01
-6.957879E-01
-5.916589E-01
-5.467395E-01
-5.078053E-01
-5.214671E-01
-5.467047E-01
-7.191231E-01
-6.026138E-01
-5.976273E-01
-5.916589E-01
-6.763402E-01
-5.346840E-01
-4.953588E-01
-5.235183E-01
-4.871450E-01
-4.413114E-01
-4.943766E-01
-5.467395E-01
-5.849600E-01
-5.467047E-01
-5.346840E-01
-6.200922E-01
-4.883243E-01
-4.205606E-01
-4.526175E-01
-4.181939E-01
-3.854270E-01
-4.368271E-01
-4.953588E-01
-5.235183E-01
-5.214671E-01
-4.943766E-01
-4.883243E-01
-5.772595E-01
-4.278473E-01
-3.777178E-01
-4.010406E-01
-4.182544E-01
-3.126246E-01
-3.973951E-01
-4.205606E-01
-4.526175E-01
-4.871450E-01
-4.368271E-01
-4.278473E-01
-5.078053E-01
-3.900021E-01
-3.070212E-01
-3.405668E-01
-3.556391E-01
-2.566693E-01
-2.746949E-01
-3.307180E-01
-3.777178E-01
-4.010406E-01
-4.182544E-01
-4.181939E-01
-3.973951E-01
-3.900021E-01
-4.413114E-01
-3.284644E-01
-2.465531E-01
-2.758899E-01
-3.075347E-01
-1.739026E-01
-1.992756E-01
-2.996326E-01
-3.070212E-01
-3.405668E-01
-3.556391E-01
-3.854270E-01
-3.307180E-01
-3.284644E-01
-2.856188E-01
-2.330529E-01
-1.777265E-01
-2.321828E-01
-2.487553E-01
-1.544386E-01
-9.630463E-02
-2.437621E-01
-2.465531E-01
-2.746949E-01
-2.758899E-01
-3.075347E-01
-3.126246E-01
-2.996326E-01
-2.856188E-01
-2.388691E-01
-1.550317E-01
-9.668929E-02
-1.671186E-01
-1.928866E-01
-7.691985E-02
-3.582223E-02
-1.970580E-01
-1.777265E-01
-2.330529E-01
-1.992756E-01
-2.321828E-01
-2.487553E-01
-2.566693E-01
-2.437621E-01
-2.388691E-01
-1.904635E-01
-1.328045E-01
-8.749474E-02
-4.071960E-02
-1.425916E-01
-1.738765E-01
4.245379E-02
-1.542503E-01
-9.668929E-02
-1.550317E-01
-1.544386E-01
-1.671186E-01
-1.928866E-01
-1.739026E-01
-1.970580E-01
-1.904635E-01
-1.525489E-01
-6.544431E-02
-3.162994E-02
3.533320E-02
-7.636326E-02
-1.124994E-01
1.030140E-01
7.740897E-02
-1.094478E-01
-4.071960E-02
-8.749474E-02
-1.328045E-01
-7.691985E-02
-1.425916E-01
-1.738765E-01
-9.630463E-02
-1.542503E-01
-1.525489E-01
-1.097886E-01
-3.353004E-02
3.695515E-02
9.119226E-02
-6.528118E-02
-9.087830E-02
1.864948E-01
1.532747E-01
-8.567913E-02
3.533320E-02
-3.162994E-02
-6.544431E-02
-3.582223E-02
-7.636326E-02
-1.124994E-01
-1.094478E-01
-1.097886E-01
-8.816616E-02
2.872005E-02
9.291910E-02
6.539087E-02
1.669861E-01
-2.252217E-02
-4.392953E-02
2.018003E-01
2.633837E-01
-4.434349E-02
9.119226E-02
7.740897E-02
3.695515E-02
-3.353004E-02
4.245379E-02
-6.528118E-02
-9.087830E-02
-8.567913E-02
-8.816616E-02
-5.277766E-02
7.147684E-02
1.661844E-01
1.280649E-01
2.419268E-01
2.592933E-02
-2.116337E-02
2.760862E-01
3.192570E-01
-3.306446E-02
1.669861E-01
9.291910E-02
1.532747E-01
6.539087E-02
2.872005E-02
1.030140E-01
-2.252217E-02
-4.392953E-02
-4.434349E-02
-5.277766E-02
-3.505710E-02
6.876034E-02
1.339556E-01
1.728945E-01
2.393983E-01
3.025013E-01
4.349205E-02
1.780671E-02
3.910899E-01
-9.923030E-03
2.419268E-01
1.661844E-01
2.018003E-01
1.280649E-01
7.147684E-02
1.864948E-01
2.592933E-02
-2.116337E-02
-3.306446E-02
-3.505710E-02
-1.566746E-02
1.206332E-01
1.896535E-01
2.347454E-01
2.821513E-01
3.723321E-01
8.343029E-02
4.094757E-02
4.470343E-01
4.177499E-01
1.101830E-02
3.025013E-01
2.393983E-01
1.728945E-01
2.760862E-01
1.339556E-01
6.876034E-02
2.633837E-01
4.349205E-02
1.780671E-02
-9.923030E-03
-1.566746E-02
-5.517837E-03
1.177405E-01
1.790476E-01
2.456136E-01
3.442033E-01
4.150793E-01
8.060095E-02
3.419786E-02
5.185193E-01
4.825119E-01
1.503097E-02
3.723321E-01
2.821513E-01
2.347454E-01
3.192570E-01
1.896535E-01
1.206332E-01
8.343029E-02
4.094757E-02
1.101830E-02
-5.517837E-03
4.239252E-03
1.577408E-01
2.021871E-01
3.018575E-01
4.047721E-01
3.530413E-01
4.862999E-01
1.085739E-01
5.677902E-02
5.273370E-01
5.829915E-01
2.615212E-02
4.150793E-01
4.177499E-01
3.442033E-01
2.456136E-01
3.910899E-01
1.790476E-01
1.177405E-01
8.060095E-02
3.419786E-02
1.503097E-02
4.239252E-03
4.239252E-03
1.514035E-01
2.450099E-01
3.249953E-01
4.621287E-01
4.037843E-01
5.437352E-01
9.150166E-02
4.472062E-02
5.870793E-01
6.257487E-01
1.503097E-02
4.862999E-01
4.047721E-01
4.825119E-01
3.530413E-01
3.018575E-01
4.470343E-01
2.021871E-01
1.577408E-01
1.085739E-01
5.677902E-02
2.615212E-02
4.239252E-03
-5.517837E-03
1.854964E-01
3.009682E-01
2.346564E-01
3.901447E-01
4.523029E-01
5.298713E-01
5.996896E-01
9.150166E-02
5.677902E-02
6.801997E-01
1.101830E-02
5.437352E-01
4.621287E-01
5.273370E-01
4.037843E-01
3.249953E-01
5.185193E-01
2.450099E-01
1.514035E-01
9.150166E-02
4.472062E-02
1.503097E-02
-5.517837E-03
-1.566746E-02
1.854964E-01
3.354413E-01
2.636510E-01
4.268346E-01
4.992289E-01
5.530058E-01
6.526656E-01
1.085739E-01
3.419786E-02
7.230071E-01
6.945063E-01
-9.923030E-03
5.996896E-01
5.298713E-01
4.523029E-01
5.870793E-01
3.901447E-01
3.009682E-01
5.829915E-01
2.346564E-01
1.854964E-01
9.150166E-02
5.677902E-02
1.101830E-02
-1.566746E-02
-3.505710E-02
1.514035E-01
2.346564E-01
3.084776E-01
3.961582E-01
4.874001E-01
5.990782E-01
6.757946E-01
8.060095E-02
4.094757E-02
7.716085E-01
7.383027E-01
-3.306446E-02
6.526656E-01
5.530058E-01
4.992289E-01
6.257487E-01
4.268346E-01
3.354413E-01
2.636510E-01
1.854964E-01
1.085739E-01
3.419786E-02
-9.923030E-03
-3.505710E-02
-5.277766E-02
1.577408E-01
2.450099E-01
3.354413E-01
3.961582E-01
5.290762E-01
6.550270E-01
5.869773E-01
7.315943E-01
8.343029E-02
1.780671E-02
7.725975E-01
8.138390E-01
-4.434349E-02
6.757946E-01
6.945063E-01
5.990782E-01
4.874001E-01
6.801997E-01
3.961582E-01
3.084776E-01
2.346564E-01
1.514035E-01
8.060095E-02
4.094757E-02
-3.306446E-02
-5.277766E-02
-8.816616E-02
1.177405E-01
2.021871E-01
3.009682E-01
4.268346E-01
5.290762E-01
6.877447E-01
6.180660E-01
7.627812E-01
4.349205E-02
-2.116337E-02
8.086959E-01
8.369674E-01
-8.567913E-02
7.315943E-01
6.550270E-01
7.383027E-01
5.869773E-01
5.290762E-01
7.230071E-01
3.961582E-01
3.354413E-01
2.450099E-01
1.577408E-01
8.343029E-02
1.780671E-02
-4.434349E-02
-8.816616E-02
-1.097886E-01
1.206332E-01
1.790476E-01
3.249953E-01
4.874001E-01
3.901447E-01
5.869773E-01
6.628846E-01
7.396991E-01
8.055879E-01
2.592933E-02
-4.392953E-02
8.657346E-01
-1.094478E-01
7.627812E-01
6.877447E-01
7.725975E-01
6.180660E-01
5.290762E-01
7.716085E-01
4.268346E-01
3.009682E-01
2.021871E-01
1.177405E-01
4.349205E-02
-2.116337E-02
-8.567913E-02
-1.097886E-01
-1.525489E-01
6.876034E-02
1.896535E-01
3.018575E-01
4.992289E-01
4.037843E-01
5.990782E-01
6.877447E-01
7.396991E-01
8.336407E-01
-2.252217E-02
-9.087830E-02
8.888651E-01
8.655158E-01
-1.542503E-01
8.055879E-01
7.396991E-01
6.628846E-01
8.086959E-01
5.869773E-01
4.874001E-01
8.138390E-01
3.901447E-01
3.249953E-01
1.790476E-01
1.206332E-01
2.592933E-02
-4.392953E-02
-1.094478E-01
-1.525489E-01
-1.904635E-01
7.147684E-02
2.456136E-01
1.339556E-01
3.530413E-01
4.523029E-01
5.530058E-01
6.550270E-01
7.627812E-01
8.336407E-01
-6.528118E-02
-1.124994E-01
9.071605E-01
8.816786E-01
-1.970580E-01
8.336407E-01
7.396991E-01
6.877447E-01
8.369674E-01
5.990782E-01
4.992289E-01
4.037843E-01
3.018575E-01
1.896535E-01
6.876034E-02
-2.252217E-02
-9.087830E-02
-1.542503E-01
-1.904635E-01
-2.388691E-01
2.872005E-02
2.347454E-01
1.280649E-01
3.442033E-01
4.621287E-01
5.298713E-01
6.757946E-01
8.055879E-01
7.315943E-01
8.655158E-01
-7.636326E-02
-1.738765E-01
9.001927E-01
9.206180E-01
-2.437621E-01
8.336407E-01
8.655158E-01
7.627812E-01
6.550270E-01
8.657346E-01
5.530058E-01
4.523029E-01
3.530413E-01
2.456136E-01
1.339556E-01
7.147684E-02
-6.528118E-02
-1.124994E-01
-1.970580E-01
-2.388691E-01
-2.856188E-01
6.539087E-02
-3.353004E-02
1.728945E-01
2.821513E-01
4.047721E-01
5.437352E-01
6.526656E-01
8.086959E-01
7.383027E-01
8.657346E-01
-1.425916E-01
-1.928866E-01
9.071605E-01
9.206180E-01
-2.996326E-01
8.655158E-01
8.055879E-01
8.816786E-01
7.315943E-01
6.757946E-01
8.888651E-01
5.298713E-01
4.621287E-01
3.442033E-01
2.347454E-01
1.280649E-01
2.872005E-02
-7.636326E-02
-1.738765E-01
-2.437621E-01
-2.856188E-01
-3.284644E-01
3.695515E-02
-6.544431E-02
1.661844E-01
2.393983E-01
4.150793E-01
5.996896E-01
4.862999E-01
6.945063E-01
7.725975E-01
8.369674E-01
8.888651E-01
-1.671186E-01
-2.487553E-01
-3.307180E-01
8.657346E-01
8.086959E-01
9.001927E-01
7.383027E-01
6.526656E-01
9.071605E-01
5.437352E-01
4.047721E-01
2.821513E-01
1.728945E-01
6.539087E-02
-3.353004E-02
-1.425916E-01
-1.928866E-01
-2.996326E-01
-3.284644E-01
-3.900021E-01
9.291910E-02
-3.162994E-02
-1.328045E-01
2.419268E-01
3.723321E-01
5.870793E-01
4.825119E-01
6.801997E-01
7.716085E-01
8.138390E-01
-2.321828E-01
-3.075347E-01
-3.973951E-01
8.888651E-01
8.369674E-01
7.725975E-01
9.071605E-01
6.945063E-01
5.996896E-01
9.206180E-01
4.862999E-01
4.150793E-01
2.393983E-01
1.661844E-01
3.695515E-02
-6.544431E-02
-1.671186E-01
-2.487553E-01
-3.307180E-01
-3.900021E-01
-4.278473E-01
9.119226E-02
-8.749474E-02
-1.550317E-01
3.025013E-01
1.669861E-01
4.177499E-01
5.273370E-01
6.257487E-01
7.230071E-01
-2.758899E-01
-3.556391E-01
-4.368271E-01
8.138390E-01
7.716085E-01
9.206180E-01
6.801997E-01
5.870793E-01
4.825119E-01
3.723321E-01
2.419268E-01
9.291910E-02
-3.162994E-02
-1.328045E-01
-2.321828E-01
-3.075347E-01
-3.973951E-01
-4.278473E-01
-4.883243E-01
3.533320E-02
-9.668929E-02
-2.330529E-01
2.760862E-01
1.532747E-01
3.910899E-01
5.185193E-01
5.829915E-01
-3.405668E-01
-4.182544E-01
-4.943766E-01
7.230071E-01
6.257487E-01
5.273370E-01
4.177499E-01
3.025013E-01
1.669861E-01
9.119226E-02
-8.749474E-02
-1.550317E-01
-2.758899E-01
-3.556391E-01
-4.368271E-01
-4.883243E-01
-5.346840E-01
7.740897E-02
-4.071960E-02
-1.777265E-01
-2.465531E-01
2.018003E-01
3.192570E-01
4.470343E-01
-4.010406E-01
-4.526175E-01
-5.467047E-01
5.829915E-01
5.185193E-01
3.910899E-01
2.760862E-01
1.532747E-01
3.533320E-02
-9.668929E-02
-2.330529E-01
-3.405668E-01
-4.182544E-01
-4.943766E-01
-5.346840E-01
-5.916589E-01
4.245379E-02
-7.691985E-02
-1.992756E-01
-3.070212E-01
1.864948E-01
2.633837E-01
-4.205606E-01
-5.235183E-01
-5.976273E-01
4.470343E-01
3.192570E-01
2.018003E-01
7.740897E-02
-4.071960E-02
-1.777265E-01
-2.465531E-01
-4.010406E-01
-4.526175E-01
-5.467047E-01
-5.916589E-01
-6.399970E-01
1.030140E-01
-3.582223E-02
-1.544386E-01
-2.746949E-01
-3.777178E-01
-4.953588E-01
-5.467395E-01
-6.535072E-01
2.633837E-01
1.864948E-01
4.245379E-02
-7.691985E-02
-1.992756E-01
-3.070212E-01
-4.205606E-01
-5.235183E-01
-5.976273E-01
-6.399970E-01
-6.812697E-01
-9.630463E-02
-1.739026E-01
-3.126246E-01
-4.181939E-01
-5.214671E-01
-6.026138E-01
-6.803857E-01
1.030140E-01
-3.582223E-02
-1.544386E-01
-2.746949E-01
-3.777178E-01
-4.953588E-01
-5.467395E-01
-6.535072E-01
-6.812697E-01
-7.342592E-01
-2.566693E-01
-3.854270E-01
-4.871450E-01
-5.849600E-01
-6.571936E-01
-7.375621E-01
-9.630463E-02
-1.739026E-01
-3.126246E-01
-4.181939E-01
-5.214671E-01
-6.026138E-01
-6.803857E-01
-7.342592E-01
-7.636731E-01
-4.413114E-01
-5.078053E-01
-6.200922E-01
-6.957879E-01
-7.642611E-01
-2.566693E-01
-3.854270E-01
-4.871450E-01
-5.849600E-01
-6.571936E-01
-7.375621E-01
-7.636731E-01
-8.064564E-01
-5.772595E-01
-6.763402E-01
-7.456790E-01
-8.061683E-01
-4.413114E-01
-5.078053E-01
-6.200922E-01
-6.957879E-01
-7.642611E-01
-8.064564E-01
-8.366153E-01
-7.191231E-01
-7.643937E-01
-8.331640E-01
-5.772595E-01
-6.763402E-01
-7.456790E-01
-8.061683E-01
-8.366153E-01
-8.674704E-01
-8.099714E-01
-8.643072E-01
-7.191231E-01
-7.643937E-01
-8.331640E-01
-8.674704E-01
-8.907258E-01
-8.874995E-01
-8.099714E-01
-8.643072E-01
-8.907258E-01
-9.046704E-01
-8.874995E-01
-9.046704E-01
-9.195323E-01
-9.195323E-01
