# vtk DataFile Version 2.0
Grille
ASCII
DATASET POLYDATA
POINTS 481 float
0.000000E+00 8.750000E-01 -9.154792E-01
6.250000E-02 8.750000E-01 -8.960841E-01
1.250000E-01 8.750000E-01 -8.457299E-01
1.250000E-01 9.375000E-01 -8.960841E-01
1.250000E-01 1.000000E+00 -9.154792E-01
6.250000E-02 1.000000E+00 -9.700147E-01
0.000000E+00 1.000000E+00 -9.914631E-01
0.000000E+00 9.375000E-01 -9.700147E-01
3.750000E-02 9.125000E-01 -9.440878E-01
8.125000E-02 9.187500E-01 -9.255628E-01
8.750000E-02 9.625000E-01 -9.440878E-01
4.375000E-02 9.562500E-01 -9.702160E-01
1.875000E-01 8.750000E-01 -7.597023E-01
2.500000E-01 8.750000E-01 -6.471616E-01
2.500000E-01 9.375000E-01 -6.857721E-01
2.500000E-01 1.000000E+00 -7.005004E-01
1.875000E-01 1.000000E+00 -8.221524E-01
1.625000E-01 9.125000E-01 -8.294248E-01
2.062500E-01 9.187500E-01 -7.624948E-01
2.125000E-01 9.625000E-01 -7.701897E-01
1.687500E-01 9.562500E-01 -8.448117E-01
0.000000E+00 7.500000E-01 -7.005004E-01
6.250000E-02 7.500000E-01 -6.857721E-01
1.250000E-01 7.500000E-01 -6.471616E-01
1.250000E-01 8.125000E-01 -7.597023E-01
0.000000E+00 8.125000E-01 -8.221524E-01
3.750000E-02 7.875000E-01 -7.701897E-01
8.125000E-02 7.937500E-01 -7.624948E-01
8.750000E-02 8.375000E-01 -8.294248E-01
4.375000E-02 8.312500E-01 -8.448117E-01
1.875000E-01 7.500000E-01 -5.815718E-01
2.500000E-01 7.500000E-01 -4.951925E-01
2.500000E-01 8.125000E-01 -5.815718E-01
1.625000E-01 7.875000E-01 -6.768135E-01
2.062500E-01 7.937500E-01 -6.281359E-01
2.125000E-01 8.375000E-01 -6.768135E-01
1.687500E-01 8.312500E-01 -7.356612E-01
3.125000E-01 8.750000E-01 -5.076595E-01
3.750000E-01 8.750000E-01 -3.500722E-01
3.750000E-01 9.375000E-01 -3.710880E-01
3.750000E-01 1.000000E+00 -3.789207E-01
3.125000E-01 1.000000E+00 -5.492329E-01
2.875000E-01 9.125000E-01 -5.885091E-01
3.312500E-01 9.187500E-01 -4.833734E-01
3.375000E-01 9.625000E-01 -4.790990E-01
2.937500E-01 9.562500E-01 -5.908861E-01
4.375000E-01 8.750000E-01 -1.783318E-01
5.000000E-01 8.750000E-01 3.138736E-04
5.000000E-01 9.375000E-01 8.480754E-05
5.000000E-01 1.000000E+00 3.376289E-04
4.375000E-01 1.000000E+00 -1.927171E-01
4.125000E-01 9.125000E-01 -2.580115E-01
4.562500E-01 9.187500E-01 -1.306711E-01
4.625000E-01 9.625000E-01 -1.150827E-01
4.187500E-01 9.562500E-01 -2.470247E-01
3.125000E-01 7.500000E-01 -3.887870E-01
3.750000E-01 7.500000E-01 -2.678045E-01
3.750000E-01 8.125000E-01 -3.148850E-01
2.875000E-01 7.875000E-01 -4.803536E-01
3.312500E-01 7.937500E-01 -3.981187E-01
3.375000E-01 8.375000E-01 -4.211487E-01
2.937500E-01 8.312500E-01 -5.144861E-01
4.375000E-01 7.500000E-01 -1.367904E-01
5.000000E-01 7.500000E-01 3.729291E-04
5.000000E-01 8.125000E-01 -2.495162E-04
4.125000E-01 7.875000E-01 -2.107456E-01
4.562500E-01 7.937500E-01 -1.074771E-01
4.625000E-01 8.375000E-01 -1.013614E-01
4.187500E-01 8.312500E-01 -2.149763E-01
0.000000E+00 6.250000E-01 -3.789207E-01
6.250000E-02 6.250000E-01 -3.710880E-01
1.250000E-01 6.250000E-01 -3.500722E-01
1.250000E-01 6.875000E-01 -5.076595E-01
0.000000E+00 6.875000E-01 -5.492329E-01
3.750000E-02 6.625000E-01 -4.790990E-01
8.125000E-02 6.687500E-01 -4.833734E-01
8.750000E-02 7.125000E-01 -5.885091E-01
4.375000E-02 7.062500E-01 -5.908861E-01
1.875000E-01 6.250000E-01 -3.148850E-01
2.500000E-01 6.250000E-01 -2.678045E-01
2.500000E-01 6.875000E-01 -3.887870E-01
1.625000E-01 6.625000E-01 -4.211487E-01
2.062500E-01 6.687500E-01 -3.981187E-01
2.125000E-01 7.125000E-01 -4.803536E-01
1.687500E-01 7.062500E-01 -5.144861E-01
0.000000E+00 5.000000E-01 3.376289E-04
6.250000E-02 5.000000E-01 8.480754E-05
1.250000E-01 5.000000E-01 3.138736E-04
1.250000E-01 5.625000E-01 -1.783318E-01
0.000000E+00 5.625000E-01 -1.927171E-01
3.750000E-02 5.375000E-01 -1.150827E-01
8.125000E-02 5.437500E-01 -1.306711E-01
8.750000E-02 5.875000E-01 -2.580115E-01
4.375000E-02 5.812500E-01 -2.470247E-01
1.875000E-01 5.000000E-01 -2.495162E-04
2.500000E-01 5.000000E-01 3.729291E-04
2.500000E-01 5.625000E-01 -1.367904E-01
1.625000E-01 5.375000E-01 -1.013614E-01
2.062500E-01 5.437500E-01 -1.074771E-01
2.125000E-01 5.875000E-01 -2.107456E-01
1.687500E-01 5.812500E-01 -2.149763E-01
3.125000E-01 6.250000E-01 -2.106866E-01
3.750000E-01 6.250000E-01 -1.447224E-01
3.750000E-01 6.875000E-01 -2.106866E-01
2.875000E-01 6.625000E-01 -2.990266E-01
3.312500E-01 6.687500E-01 -2.522064E-01
3.375000E-01 7.125000E-01 -2.990266E-01
2.937500E-01 7.062500E-01 -3.597129E-01
4.375000E-01 6.250000E-01 -7.437775E-02
5.000000E-01 6.250000E-01 4.223609E-04
5.000000E-01 6.875000E-01 -4.857752E-04
4.125000E-01 6.625000E-01 -1.313448E-01
4.562500E-01 6.687500E-01 -6.786771E-02
4.625000E-01 7.125000E-01 -7.215023E-02
4.187500E-01 7.062500E-01 -1.501463E-01
3.125000E-01 5.000000E-01 -4.857752E-04
3.750000E-01 5.000000E-01 4.223609E-04
3.750000E-01 5.625000E-01 -7.437775E-02
2.875000E-01 5.375000E-01 -7.215023E-02
3.312500E-01 5.437500E-01 -6.786771E-02
3.375000E-01 5.875000E-01 -1.313448E-01
2.937500E-01 5.812500E-01 -1.501463E-01
4.375000E-01 5.000000E-01 -6.088770E-04
5.000000E-01 5.000000E-01 4.412525E-04
5.000000E-01 5.625000E-01 -6.088770E-04
4.125000E-01 5.375000E-01 -3.191308E-02
4.562500E-01 5.437500E-01 -1.788917E-02
4.625000E-01 5.875000E-01 -3.191308E-02
4.187500E-01 5.812500E-01 -6.241815E-02
5.625000E-01 8.750000E-01 1.781486E-01
6.250000E-01 8.750000E-01 3.506560E-01
6.250000E-01 9.375000E-01 3.712440E-01
6.250000E-01 1.000000E+00 3.795424E-01
5.625000E-01 1.000000E+00 1.931347E-01
5.375000E-01 9.125000E-01 1.117648E-01
5.812500E-01 9.187500E-01 2.419248E-01
5.875000E-01 9.625000E-01 2.664519E-01
5.437500E-01 9.562500E-01 1.344402E-01
6.875000E-01 8.750000E-01 5.075109E-01
7.500000E-01 8.750000E-01 6.476152E-01
7.500000E-01 9.375000E-01 6.858787E-01
7.500000E-01 1.000000E+00 7.009565E-01
6.875000E-01 1.000000E+00 5.495800E-01
6.625000E-01 9.125000E-01 4.645266E-01
7.062500E-01 9.187500E-01 5.776884E-01
7.125000E-01 9.625000E-01 6.074173E-01
6.687500E-01 9.562500E-01 4.954358E-01
5.625000E-01 7.500000E-01 1.360480E-01
6.250000E-01 7.500000E-01 2.685096E-01
6.250000E-01 8.125000E-01 3.144337E-01
5.375000E-01 7.875000E-01 9.095947E-02
5.812500E-01 7.937500E-01 1.995388E-01
5.875000E-01 8.375000E-01 2.338646E-01
5.437500E-01 8.312500E-01 1.172695E-01
6.875000E-01 7.500000E-01 3.881908E-01
7.500000E-01 7.500000E-01 4.957867E-01
7.500000E-01 8.125000E-01 5.812577E-01
6.625000E-01 7.875000E-01 3.788292E-01
7.062500E-01 7.937500E-01 4.761888E-01
7.125000E-01 8.375000E-01 5.334938E-01
6.687500E-01 8.312500E-01 4.316699E-01
8.125000E-01 8.750000E-01 7.596078E-01
8.750000E-01 8.750000E-01 8.459770E-01
8.750000E-01 9.375000E-01 8.960645E-01
8.750000E-01 1.000000E+00 9.156123E-01
8.125000E-01 1.000000E+00 8.223374E-01
7.875000E-01 9.125000E-01 7.465617E-01
8.312500E-01 9.187500E-01 8.254902E-01
8.375000E-01 9.625000E-01 8.558848E-01
7.937500E-01 9.562500E-01 7.809924E-01
9.375000E-01 8.750000E-01 8.960645E-01
1.000000E+00 8.750000E-01 9.156123E-01
1.000000E+00 9.375000E-01 9.697986E-01
1.000000E+00 1.000000E+00 9.904860E-01
9.375000E-01 1.000000E+00 9.697986E-01
9.125000E-01 9.125000E-01 9.149149E-01
9.562500E-01 9.187500E-01 9.475870E-01
9.625000E-01 9.625000E-01 9.739332E-01
9.187500E-01 9.562500E-01 9.475870E-01
8.125000E-01 7.500000E-01 5.812577E-01
8.750000E-01 7.500000E-01 6.476152E-01
8.750000E-01 8.125000E-01 7.596078E-01
7.875000E-01 7.875000E-01 6.090408E-01
8.312500E-01 7.937500E-01 6.803602E-01
8.375000E-01 8.375000E-01 7.519108E-01
7.937500E-01 8.312500E-01 6.803602E-01
9.375000E-01 7.500000E-01 6.858787E-01
1.000000E+00 7.500000E-01 7.009565E-01
1.000000E+00 8.125000E-01 8.223374E-01
9.125000E-01 7.875000E-01 7.465617E-01
9.562500E-01 7.937500E-01 7.809924E-01
9.625000E-01 8.375000E-01 8.558848E-01
9.187500E-01 8.312500E-01 8.254902E-01
5.625000E-01 6.250000E-01 7.328128E-02
6.250000E-01 6.250000E-01 1.455287E-01
6.250000E-01 6.875000E-01 2.098107E-01
5.375000E-01 6.625000E-01 5.635841E-02
5.812500E-01 6.687500E-01 1.268268E-01
5.875000E-01 7.125000E-01 1.657302E-01
5.437500E-01 7.062500E-01 8.230018E-02
6.875000E-01 6.250000E-01 2.098107E-01
7.500000E-01 6.250000E-01 2.685096E-01
7.500000E-01 6.875000E-01 3.881908E-01
6.625000E-01 6.625000E-01 2.355054E-01
7.062500E-01 6.687500E-01 3.022377E-01
7.125000E-01 7.125000E-01 3.784008E-01
6.687500E-01 7.062500E-01 3.022377E-01
5.625000E-01 5.000000E-01 -6.088770E-04
6.250000E-01 5.000000E-01 4.223609E-04
6.250000E-01 5.625000E-01 7.328128E-02
5.375000E-01 5.375000E-01 1.321376E-02
5.812500E-01 5.437500E-01 3.484232E-02
5.875000E-01 5.875000E-01 7.240520E-02
5.437500E-01 5.812500E-01 3.484232E-02
6.875000E-01 5.000000E-01 -4.857752E-04
7.500000E-01 5.000000E-01 3.729291E-04
7.500000E-01 5.625000E-01 1.360480E-01
6.625000E-01 5.375000E-01 5.635841E-02
7.062500E-01 5.437500E-01 8.230018E-02
7.125000E-01 5.875000E-01 1.657302E-01
6.687500E-01 5.812500E-01 1.268268E-01
8.125000E-01 6.250000E-01 3.144337E-01
8.750000E-01 6.250000E-01 3.506560E-01
8.750000E-01 6.875000E-01 5.075109E-01
7.875000E-01 6.625000E-01 3.788292E-01
8.312500E-01 6.687500E-01 4.316699E-01
8.375000E-01 7.125000E-01 5.334938E-01
7.937500E-01 7.062500E-01 4.761888E-01
9.375000E-01 6.250000E-01 3.712440E-01
1.000000E+00 6.250000E-01 3.795424E-01
1.000000E+00 6.875000E-01 5.495800E-01
9.125000E-01 6.625000E-01 4.645266E-01
9.562500E-01 6.687500E-01 4.954358E-01
9.625000E-01 7.125000E-01 6.074173E-01
9.187500E-01 7.062500E-01 5.776884E-01
8.125000E-01 5.000000E-01 -2.495162E-04
8.750000E-01 5.000000E-01 3.138736E-04
8.750000E-01 5.625000E-01 1.781486E-01
7.875000E-01 5.375000E-01 9.095947E-02
8.312500E-01 5.437500E-01 1.172695E-01
8.375000E-01 5.875000E-01 2.338646E-01
7.937500E-01 5.812500E-01 1.995388E-01
9.375000E-01 5.000000E-01 8.480754E-05
1.000000E+00 5.000000E-01 3.376289E-04
1.000000E+00 5.625000E-01 1.931347E-01
9.125000E-01 5.375000E-01 1.117648E-01
9.562500E-01 5.437500E-01 1.344402E-01
9.625000E-01 5.875000E-01 2.664519E-01
9.187500E-01 5.812500E-01 2.419248E-01
0.000000E+00 3.750000E-01 3.795424E-01
6.250000E-02 3.750000E-01 3.712440E-01
[...]
CELL_DATA 896
SCALARS sol float 1
LOOKUP_TABLE default
-9.185504E-01
-9.219116E-01
-9.431939E-01
-8.854583E-01
-9.466222E-01
-8.891256E-01
-9.614395E-01
-8.608144E-01
-8.567735E-01
-9.466222E-01
-8.891256E-01
-8.570796E-01
-9.772313E-01
-8.123846E-01
-8.122437E-01
-9.614395E-01
-9.219116E-01
-8.570796E-01
-8.116190E-01
-9.772313E-01
-7.924987E-01
-7.642809E-01
-7.838740E-01
-9.431939E-01
-9.185504E-01
-8.116190E-01
-8.567735E-01
-7.803645E-01
-7.394855E-01
-7.188207E-01
-7.231196E-01
-8.854583E-01
-7.838740E-01
-7.803645E-01
-8.122437E-01
-7.240590E-01
-6.984761E-01
-6.590529E-01
-6.945591E-01
-8.608144E-01
-7.231196E-01
-7.240590E-01
-7.924987E-01
-6.802035E-01
-6.404809E-01
-6.135398E-01
-6.217224E-01
-6.351823E-01
-8.123846E-01
-6.984761E-01
-6.945591E-01
-6.802035E-01
-7.394855E-01
-6.288404E-01
-5.811101E-01
-5.397393E-01
-5.542562E-01
-5.810732E-01
-7.642809E-01
-6.404809E-01
-6.351823E-01
-6.288404E-01
-7.188207E-01
-5.683001E-01
-5.265140E-01
-5.564357E-01
-5.177862E-01
-4.690842E-01
-5.254705E-01
-5.811101E-01
-6.217224E-01
-5.810732E-01
-5.683001E-01
-6.590529E-01
-5.190393E-01
-4.470351E-01
-4.810981E-01
-4.445201E-01
-4.097025E-01
-4.643195E-01
-5.265140E-01
-5.564357E-01
-5.542562E-01
-5.254705E-01
-5.190393E-01
-6.135398E-01
-4.547777E-01
-4.015112E-01
-4.262935E-01
-4.445845E-01
-3.323445E-01
-4.224198E-01
-4.470351E-01
-4.810981E-01
-5.177862E-01
-4.643195E-01
-4.547777E-01
-5.397393E-01
-4.145642E-01
-3.263906E-01
-3.620353E-01
-3.780508E-01
-2.728875E-01
-2.920414E-01
-3.515701E-01
-4.015112E-01
-4.262935E-01
-4.445845E-01
-4.445201E-01
-4.224198E-01
-4.145642E-01
-4.690842E-01
-3.491755E-01
-2.621385E-01
-2.933112E-01
-3.269361E-01
-1.849415E-01
-2.119024E-01
-3.185394E-01
-3.263906E-01
-3.620353E-01
-3.780508E-01
-4.097025E-01
-3.515701E-01
-3.491755E-01
-3.036487E-01
-2.477934E-01
-1.890048E-01
-2.468690E-01
-2.644784E-01
-1.642595E-01
-1.024874E-01
-2.591726E-01
-2.621385E-01
-2.920414E-01
-2.933112E-01
-3.269361E-01
-3.323445E-01
-3.185394E-01
-3.036487E-01
-2.539732E-01
-1.648898E-01
-1.028963E-01
-1.777330E-01
-2.051135E-01
-8.188965E-02
-3.822008E-02
-2.095458E-01
-1.890048E-01
-2.477934E-01
-2.119024E-01
-2.468690E-01
-2.644784E-01
-2.728875E-01
-2.591726E-01
-2.539732E-01
-2.025385E-01
-1.412716E-01
-9.312643E-02
-4.342413E-02
-1.516710E-01
-1.849137E-01
4.495421E-02
-1.640593E-01
-1.028963E-01
-1.648898E-01
-1.642595E-01
-1.777330E-01
-2.051135E-01
-1.849415E-01
-2.095458E-01
-2.025385E-01
-1.622513E-01
-6.969599E-02
-3.376567E-02
3.738783E-02
-8.129816E-02
-1.196956E-01
1.093042E-01
8.209660E-02
-1.164530E-01
-4.342413E-02
-9.312643E-02
-1.412716E-01
-8.188965E-02
-1.516710E-01
-1.849137E-01
-1.024874E-01
-1.640593E-01
-1.622513E-01
-1.168150E-01
-3.578455E-02
3.911128E-02
9.674244E-02
-6.952255E-02
-9.672142E-02
1.980089E-01
1.627099E-01
-9.119676E-02
3.738783E-02
-3.376567E-02
-6.969599E-02
-3.822008E-02
-8.129816E-02
-1.196956E-01
-1.164530E-01
-1.168150E-01
-9.383944E-02
3.036096E-02
9.857734E-02
6.932648E-02
1.772794E-01
-2.408769E-02
-4.683457E-02
2.142723E-01
2.797097E-01
-4.727436E-02
9.674244E-02
8.209660E-02
3.911128E-02
-3.578455E-02
4.495421E-02
-6.952255E-02
-9.672142E-02
-9.119676E-02
-9.383944E-02
-5.623633E-02
7.579345E-02
1.764276E-01
1.359226E-01
2.569098E-01
2.739578E-02
-2.264371E-02
2.932069E-01
3.390794E-01
-3.528949E-02
1.772794E-01
9.857734E-02
1.627099E-01
6.932648E-02
3.036096E-02
1.093042E-01
-2.408769E-02
-4.683457E-02
-4.727436E-02
-5.623633E-02
-3.740680E-02
7.290702E-02
1.421821E-01
1.835576E-01
2.542231E-01
3.212749E-01
4.605760E-02
1.876500E-02
4.154074E-01
-1.069987E-02
2.569098E-01
1.764276E-01
2.142723E-01
1.359226E-01
7.579345E-02
1.980089E-01
2.739578E-02
-2.264371E-02
-3.528949E-02
-3.740680E-02
-1.680371E-02
1.280261E-01
2.013655E-01
2.492790E-01
2.996514E-01
3.954755E-01
8.849512E-02
4.335402E-02
4.748527E-01
4.437355E-01
1.155193E-02
3.212749E-01
2.542231E-01
1.835576E-01
2.932069E-01
1.421821E-01
7.290702E-02
2.797097E-01
4.605760E-02
1.876500E-02
-1.069987E-02
-1.680371E-02
-6.018933E-03
1.249524E-01
1.900959E-01
2.608274E-01
3.655866E-01
4.408978E-01
8.548883E-02
3.618199E-02
5.508110E-01
5.125503E-01
1.581573E-02
3.954755E-01
2.996514E-01
2.492790E-01
3.390794E-01
2.013655E-01
1.280261E-01
8.849512E-02
4.335402E-02
1.155193E-02
-6.018933E-03
4.348712E-03
1.674559E-01
2.146835E-01
3.205909E-01
4.299456E-01
3.749776E-01
5.165753E-01
1.152123E-01
6.017627E-02
5.601805E-01
6.193179E-01
2.763280E-02
4.408978E-01
4.437355E-01
3.655866E-01
2.608274E-01
4.154074E-01
1.900959E-01
1.249524E-01
8.548883E-02
3.618199E-02
1.581573E-02
4.348712E-03
4.348712E-03
1.607221E-01
2.601860E-01
3.451765E-01
4.908915E-01
4.288960E-01
5.776048E-01
9.707173E-02
4.736328E-02
6.236615E-01
6.647508E-01
1.581573E-02
5.165753E-01
4.299456E-01
5.125503E-01
3.749776E-01
3.205909E-01
4.748527E-01
2.146835E-01
1.674559E-01
1.152123E-01
6.017627E-02
2.763280E-02
4.348712E-03
-6.018933E-03
1.969483E-01
3.196460E-01
2.491846E-01
4.144029E-01
4.804508E-01
5.628733E-01
6.370608E-01
9.707173E-02
6.017627E-02
7.226092E-01
1.155193E-02
5.776048E-01
4.908915E-01
5.601805E-01
4.288960E-01
3.451765E-01
5.508110E-01
2.601860E-01
1.607221E-01
9.707173E-02
4.736328E-02
1.581573E-02
-6.018933E-03
-1.680371E-02
1.969483E-01
3.562764E-01
2.799936E-01
4.533888E-01
5.303134E-01
5.874556E-01
6.933519E-01
1.152123E-01
3.618199E-02
7.680954E-01
7.378109E-01
-1.069987E-02
6.370608E-01
5.628733E-01
4.804508E-01
6.236615E-01
4.144029E-01
3.196460E-01
6.193179E-01
2.491846E-01
1.969483E-01
9.707173E-02
6.017627E-02
1.155193E-02
-1.680371E-02
-3.740680E-02
1.607221E-01
2.491846E-01
3.276254E-01
4.207928E-01
5.177444E-01
6.364110E-01
7.179282E-01
8.548883E-02
4.335402E-02
8.197382E-01
7.843481E-01
-3.528949E-02
6.933519E-01
5.874556E-01
5.303134E-01
6.647508E-01
4.533888E-01
3.562764E-01
2.799936E-01
1.969483E-01
1.152123E-01
3.618199E-02
-1.069987E-02
-3.740680E-02
-5.623633E-02
1.674559E-01
2.601860E-01
3.562764E-01
4.207928E-01
5.620284E-01
6.958611E-01
6.235529E-01
7.772199E-01
8.849512E-02
1.876500E-02
8.207891E-01
8.646115E-01
-4.727436E-02
7.179282E-01
7.378109E-01
6.364110E-01
5.177444E-01
7.226092E-01
4.207928E-01
3.276254E-01
2.491846E-01
1.607221E-01
8.548883E-02
4.335402E-02
-3.528949E-02
-5.623633E-02
-9.383944E-02
1.249524E-01
2.146835E-01
3.196460E-01
4.533888E-01
5.620284E-01
7.306262E-01
6.565871E-01
8.103583E-01
4.605760E-02
-2.264371E-02
8.591465E-01
8.891872E-01
-9.119676E-02
7.772199E-01
6.958611E-01
7.843481E-01
6.235529E-01
5.620284E-01
7.680954E-01
4.207928E-01
3.562764E-01
2.601860E-01
1.674559E-01
8.849512E-02
1.876500E-02
-4.727436E-02
-9.383944E-02
-1.168150E-01
1.280261E-01
1.900959E-01
3.451765E-01
5.177444E-01
4.144029E-01
6.235529E-01
7.042104E-01
7.858319E-01
8.558439E-01
2.739578E-02
-4.683457E-02
9.197546E-01
-1.164530E-01
8.103583E-01
7.306262E-01
8.207891E-01
6.565871E-01
5.620284E-01
8.197382E-01
4.533888E-01
3.196460E-01
2.146835E-01
1.249524E-01
4.605760E-02
-2.264371E-02
-9.119676E-02
-1.168150E-01
-1.622513E-01
7.290702E-02
2.013655E-01
3.205909E-01
5.303134E-01
4.288960E-01
6.364110E-01
7.306262E-01
7.858319E-01
8.856521E-01
-2.408769E-02
-9.672142E-02
9.443326E-01
9.195221E-01
-1.640593E-01
8.558439E-01
7.858319E-01
7.042104E-01
8.591465E-01
6.235529E-01
5.177444E-01
8.646115E-01
4.144029E-01
3.451765E-01
1.900959E-01
1.280261E-01
2.739578E-02
-4.683457E-02
-1.164530E-01
-1.622513E-01
-2.025385E-01
7.579345E-02
2.608274E-01
1.421821E-01
3.749776E-01
4.804508E-01
5.874556E-01
6.958611E-01
8.103583E-01
8.856521E-01
-6.952255E-02
-1.196956E-01
9.637729E-01
9.366963E-01
-2.095458E-01
8.856521E-01
7.858319E-01
7.306262E-01
8.891872E-01
6.364110E-01
5.303134E-01
4.288960E-01
3.205909E-01
2.013655E-01
7.290702E-02
-2.408769E-02
-9.672142E-02
-1.640593E-01
-2.025385E-01
-2.539732E-01
3.036096E-02
2.492790E-01
1.359226E-01
3.655866E-01
4.908915E-01
5.628733E-01
7.179282E-01
8.558439E-01
7.772199E-01
9.195221E-01
-8.129816E-02
-1.849137E-01
9.563691E-01
9.780726E-01
-2.591726E-01
8.856521E-01
9.195221E-01
8.103583E-01
6.958611E-01
9.197546E-01
5.874556E-01
4.804508E-01
3.749776E-01
2.608274E-01
1.421821E-01
7.579345E-02
-6.952255E-02
-1.196956E-01
-2.095458E-01
-2.539732E-01
-3.036487E-01
6.932648E-02
-3.578455E-02
1.835576E-01
2.996514E-01
4.299456E-01
5.776048E-01
6.933519E-01
8.591465E-01
7.843481E-01
9.197546E-01
-1.516710E-01
-2.051135E-01
9.637729E-01
9.780726E-01
-3.185394E-01
9.195221E-01
8.558439E-01
9.366963E-01
7.772199E-01
7.179282E-01
9.443326E-01
5.628733E-01
4.908915E-01
3.655866E-01
2.492790E-01
1.359226E-01
3.036096E-02
-8.129816E-02
-1.849137E-01
-2.591726E-01
-3.036487E-01
-3.491755E-01
3.911128E-02
-6.969599E-02
1.764276E-01
2.542231E-01
4.408978E-01
6.370608E-01
5.165753E-01
7.378109E-01
8.207891E-01
8.891872E-01
9.443326E-01
-1.777330E-01
-2.644784E-01
-3.515701E-01
9.197546E-01
8.591465E-01
9.563691E-01
7.843481E-01
6.933519E-01
9.637729E-01
5.776048E-01
4.299456E-01
2.996514E-01
1.835576E-01
6.932648E-02
-3.578455E-02
-1.516710E-01
-2.051135E-01
-3.185394E-01
-3.491755E-01
-4.145642E-01
9.857734E-02
-3.376567E-02
-1.412716E-01
2.569098E-01
3.954755E-01
6.236615E-01
5.125503E-01
7.226092E-01
8.197382E-01
8.646115E-01
-2.468690E-01
-3.269361E-01
-4.224198E-01
9.443326E-01
8.891872E-01
8.207891E-01
9.637729E-01
7.378109E-01
6.370608E-01
9.780726E-01
5.165753E-01
4.408978E-01
2.542231E-01
1.764276E-01
3.911128E-02
-6.969599E-02
-1.777330E-01
-2.644784E-01
-3.515701E-01
-4.145642E-01
-4.547777E-01
9.674244E-02
-9.312643E-02
-1.648898E-01
3.212749E-01
1.772794E-01
4.437355E-01
5.601805E-01
6.647508E-01
7.680954E-01
-2.933112E-01
-3.780508E-01
-4.643195E-01
8.646115E-01
8.197382E-01
9.780726E-01
7.226092E-01
6.236615E-01
5.125503E-01
3.954755E-01
2.569098E-01
9.857734E-02
-3.376567E-02
-1.412716E-01
-2.468690E-01
-3.269361E-01
-4.224198E-01
-4.547777E-01
-5.190393E-01
3.738783E-02
-1.028963E-01
-2.477934E-01
2.932069E-01
1.627099E-01
4.154074E-01
5.508110E-01
6.193179E-01
-3.620353E-01
-4.445845E-01
-5.254705E-01
7.680954E-01
6.647508E-01
5.601805E-01
4.437355E-01
3.212749E-01
1.772794E-01
9.674244E-02
-9.312643E-02
-1.648898E-01
-2.933112E-01
-3.780508E-01
-4.643195E-01
-5.190393E-01
-5.683001E-01
8.209660E-02
-4.342413E-02
-1.890048E-01
-2.621385E-01
2.142723E-01
3.390794E-01
4.748527E-01
-4.262935E-01
-4.810981E-01
-5.810732E-01
6.193179E-01
5.508110E-01
4.154074E-01
2.932069E-01
1.627099E-01
3.738783E-02
-1.028963E-01
-2.477934E-01
-3.620353E-01
-4.445845E-01
-5.254705E-01
-5.683001E-01
-6.288404E-01
4.495421E-02
-8.188965E-02
-2.119024E-01
-3.263906E-01
1.980089E-01
2.797097E-01
-4.470351E-01
-5.564357E-01
-6.351823E-01
4.748527E-01
3.390794E-01
2.142723E-01
8.209660E-02
-4.342413E-02
-1.890048E-01
-2.621385E-01
-4.262935E-01
-4.810981E-01
-5.810732E-01
-6.288404E-01
-6.802035E-01
1.093042E-01
-3.822008E-02
-1.642595E-01
-2.920414E-01
-4.015112E-01
-5.265140E-01
-5.811101E-01
-6.945591E-01
2.797097E-01
1.980089E-01
4.495421E-02
-8.188965E-02
-2.119024E-01
-3.263906E-01
-4.470351E-01
-5.564357E-01
-6.351823E-01
-6.802035E-01
-7.240590E-01
-1.024874E-01
-1.849415E-01
-3.323445E-01
-4.445201E-01
-5.542562E-01
-6.404809E-01
-7.231196E-01
1.093042E-01
-3.822008E-02
-1.642595E-01
-2.920414E-01
-4.015112E-01
-5.265140E-01
-5.811101E-01
-6.945591E-01
-7.240590E-01
-7.803645E-01
-2.728875E-01
-4.097025E-01
-5.177862E-01
-6.217224E-01
-6.984761E-01
-7.838740E-01
-1.024874E-01
-1.849415E-01
-3.323445E-01
-4.445201E-01
-5.542562E-01
-6.404809E-01
-7.231196E-01
-7.803645E-01
-8.116190E-01
-4.690842E-01
-5.397393E-01
-6.590529E-01
-7.394855E-01
-8.122437E-01
-2.728875E-01
-4.097025E-01
-5.177862E-01
-6.217224E-01
-6.984761E-01
-7.838740E-01
-8.116190E-01
-8.570796E-01
-6.135398E-01
-7.188207E-01
-7.924987E-01
-8.567735E-01
-4.690842E-01
-5.397393E-01
-6.590529E-01
-7.394855E-01
-8.122437E-01
-8.570796E-01
-8.891256E-01
-7.642809E-01
-8.123846E-01
-8.854583E-01
-6.135398E-01
-7.188207E-01
-7.924987E-01
-8.567735E-01
-8.891256E-01
-9.219116E-01
-8.608144E-01
-9.185504E-01
-7.642809E-01
-8.123846E-01
-8.854583E-01
-9.219116E-01
-9.466222E-01
-9.431939E-01
-8.608144E-01
-9.185504E-01
-9.466222E-01
-9.614395E-01
-9.431939E-01
-9.614395E-01
-9.772313E-01
-9.772313E-01
