# vtk DataFile Version 2.0
Grille
ASCII
DATASET POLYDATA
POINTS 481 float
0.000000E+00 8.750000E-01 -6.379252E-01
6.250000E-02 8.750000E-01 -6.244012E-01
1.250000E-01 8.750000E-01 -5.892926E-01
1.250000E-01 9.375000E-01 -6.244012E-01
1.250000E-01 1.000000E+00 -6.379252E-01
6.250000E-02 1.000000E+00 -6.759485E-01
0.000000E+00 1.000000E+00 -6.909038E-01
0.000000E+00 9.375000E-01 -6.759485E-01
3.750000E-02 9.125000E-01 -6.578713E-01
8.125000E-02 9.187500E-01 -6.449551E-01
8.750000E-02 9.625000E-01 -6.578713E-01
4.375000E-02 9.562500E-01 -6.760887E-01
1.875000E-01 8.750000E-01 -5.293108E-01
2.500000E-01 8.750000E-01 -4.508437E-01
2.500000E-01 9.375000E-01 -4.777642E-01
2.500000E-01 1.000000E+00 -4.880346E-01
1.875000E-01 1.000000E+00 -5.728534E-01
1.625000E-01 9.125000E-01 -5.779237E-01
2.062500E-01 9.187500E-01 -5.312583E-01
2.125000E-01 9.625000E-01 -5.366234E-01
1.687500E-01 9.562500E-01 -5.886519E-01
0.000000E+00 7.500000E-01 -4.880346E-01
6.250000E-02 7.500000E-01 -4.777642E-01
1.250000E-01 7.500000E-01 -4.508437E-01
1.250000E-01 8.125000E-01 -5.293108E-01
0.000000E+00 8.125000E-01 -5.728534E-01
3.750000E-02 7.875000E-01 -5.366234E-01
8.125000E-02 7.937500E-01 -5.312583E-01
8.750000E-02 8.375000E-01 -5.779237E-01
4.375000E-02 8.312500E-01 -5.886519E-01
1.875000E-01 7.500000E-01 -4.051121E-01
2.500000E-01 7.500000E-01 -3.448858E-01
2.500000E-01 8.125000E-01 -4.051121E-01
1.625000E-01 7.875000E-01 -4.715178E-01
2.062500E-01 7.937500E-01 -4.375786E-01
2.125000E-01 8.375000E-01 -4.715178E-01
1.687500E-01 8.312500E-01 -5.125480E-01
3.125000E-01 8.750000E-01 -3.535779E-01
3.750000E-01 8.750000E-01 -2.437028E-01
3.750000E-01 9.375000E-01 -2.583557E-01
3.750000E-01 1.000000E+00 -2.638183E-01
3.125000E-01 1.000000E+00 -3.825645E-01
2.875000E-01 9.125000E-01 -4.099488E-01
3.312500E-01 9.187500E-01 -3.366453E-01
3.375000E-01 9.625000E-01 -3.336651E-01
2.937500E-01 9.562500E-01 -4.116060E-01
4.375000E-01 8.750000E-01 -1.239594E-01
5.000000E-01 8.750000E-01 5.984787E-04
5.000000E-01 9.375000E-01 4.385331E-04
5.000000E-01 1.000000E+00 6.135081E-04
4.375000E-01 1.000000E+00 -1.339895E-01
4.125000E-01 9.125000E-01 -1.795146E-01
4.562500E-01 9.187500E-01 -9.072929E-02
4.625000E-01 9.625000E-01 -7.986060E-02
4.187500E-01 9.562500E-01 -1.718542E-01
3.125000E-01 7.500000E-01 -2.706962E-01
3.750000E-01 7.500000E-01 -1.863433E-01
3.750000E-01 8.125000E-01 -2.191691E-01
2.875000E-01 7.875000E-01 -3.345392E-01
3.312500E-01 7.937500E-01 -2.772029E-01
3.375000E-01 8.375000E-01 -2.932598E-01
2.937500E-01 8.312500E-01 -3.583371E-01
4.375000E-01 7.500000E-01 -9.499584E-02
5.000000E-01 7.500000E-01 6.391599E-04
5.000000E-01 8.125000E-01 2.054050E-04
4.125000E-01 7.875000E-01 -1.465594E-01
4.562500E-01 7.937500E-01 -7.455777E-02
4.625000E-01 8.375000E-01 -7.029333E-02
4.187500E-01 8.312500E-01 -1.495088E-01
0.000000E+00 6.250000E-01 -2.638183E-01
6.250000E-02 6.250000E-01 -2.583557E-01
1.250000E-01 6.250000E-01 -2.437028E-01
1.250000E-01 6.875000E-01 -3.535779E-01
0.000000E+00 6.875000E-01 -3.825645E-01
3.750000E-02 6.625000E-01 -3.336651E-01
8.125000E-02 6.687500E-01 -3.366453E-01
8.750000E-02 7.125000E-01 -4.099488E-01
4.375000E-02 7.062500E-01 -4.116060E-01
1.875000E-01 6.250000E-01 -2.191691E-01
2.500000E-01 6.250000E-01 -1.863433E-01
2.500000E-01 6.875000E-01 -2.706962E-01
1.625000E-01 6.625000E-01 -2.932598E-01
2.062500E-01 6.687500E-01 -2.772029E-01
2.125000E-01 7.125000E-01 -3.345392E-01
1.687500E-01 7.062500E-01 -3.583371E-01
0.000000E+00 5.000000E-01 6.135081E-04
6.250000E-02 5.000000E-01 4.385331E-04
1.250000E-01 5.000000E-01 5.984787E-04
1.250000E-01 5.625000E-01 -1.239594E-01
0.000000E+00 5.625000E-01 -1.339895E-01
3.750000E-02 5.375000E-01 -7.986060E-02
8.125000E-02 5.437500E-01 -9.072929E-02
8.750000E-02 5.875000E-01 -1.795146E-01
4.375000E-02 5.812500E-01 -1.718542E-01
1.875000E-01 5.000000E-01 2.054050E-04
2.500000E-01 5.000000E-01 6.391599E-04
2.500000E-01 5.625000E-01 -9.499584E-02
1.625000E-01 5.375000E-01 -7.029333E-02
2.062500E-01 5.437500E-01 -7.455777E-02
2.125000E-01 5.875000E-01 -1.465594E-01
1.687500E-01 5.812500E-01 -1.495088E-01
3.125000E-01 6.250000E-01 -1.465191E-01
3.750000E-01 6.250000E-01 -1.005268E-01
3.750000E-01 6.875000E-01 -1.465191E-01
2.875000E-01 6.625000E-01 -2.081124E-01
3.312500E-01 6.687500E-01 -1.754684E-01
3.375000E-01 7.125000E-01 -2.081124E-01
2.937500E-01 7.062500E-01 -2.504243E-01
4.375000E-01 6.250000E-01 -5.148034E-02
5.000000E-01 6.250000E-01 6.729292E-04
5.000000E-01 6.875000E-01 3.993207E-05
4.125000E-01 6.625000E-01 -9.119932E-02
4.562500E-01 6.687500E-01 -4.694136E-02
4.625000E-01 7.125000E-01 -4.992687E-02
4.187500E-01 7.062500E-01 -1.043078E-01
3.125000E-01 5.000000E-01 3.993207E-05
3.750000E-01 5.000000E-01 6.729292E-04
3.750000E-01 5.625000E-01 -5.148034E-02
2.875000E-01 5.375000E-01 -4.992687E-02
3.312500E-01 5.437500E-01 -4.694136E-02
3.375000E-01 5.875000E-01 -9.119932E-02
2.937500E-01 5.812500E-01 -1.043078E-01
4.375000E-01 5.000000E-01 -4.646415E-05
5.000000E-01 5.000000E-01 6.858069E-04
5.000000E-01 5.625000E-01 -4.646415E-05
4.125000E-01 5.375000E-01 -2.187266E-02
4.562500E-01 5.437500E-01 -1.209492E-02
4.625000E-01 5.875000E-01 -2.187266E-02
4.187500E-01 5.812500E-01 -4.314148E-02
5.625000E-01 8.750000E-01 1.245909E-01
6.250000E-01 8.750000E-01 2.448691E-01
6.250000E-01 9.375000E-01 2.592234E-01
6.250000E-01 1.000000E+00 2.650083E-01
5.625000E-01 1.000000E+00 1.350394E-01
5.375000E-01 9.125000E-01 7.830609E-02
5.812500E-01 9.187500E-01 1.690573E-01
5.875000E-01 9.625000E-01 1.861583E-01
5.437500E-01 9.562500E-01 9.411614E-02
6.875000E-01 8.750000E-01 3.542335E-01
7.500000E-01 8.750000E-01 4.519194E-01
7.500000E-01 9.375000E-01 4.785974E-01
7.500000E-01 1.000000E+00 4.891095E-01
6.875000E-01 1.000000E+00 3.835653E-01
6.625000E-01 9.125000E-01 3.242636E-01
7.062500E-01 9.187500E-01 4.031633E-01
7.125000E-01 9.625000E-01 4.238910E-01
6.687500E-01 9.562500E-01 3.458145E-01
5.625000E-01 7.500000E-01 9.523633E-02
6.250000E-01 7.500000E-01 1.875935E-01
6.250000E-01 8.125000E-01 2.196134E-01
5.375000E-01 7.875000E-01 6.379962E-02
5.812500E-01 7.937500E-01 1.395043E-01
5.875000E-01 8.375000E-01 1.634376E-01
5.437500E-01 8.312500E-01 8.214420E-02
6.875000E-01 7.500000E-01 2.710392E-01
7.500000E-01 7.500000E-01 3.460592E-01
7.500000E-01 8.125000E-01 4.056523E-01
6.625000E-01 7.875000E-01 2.645124E-01
7.062500E-01 7.937500E-01 3.323945E-01
7.125000E-01 8.375000E-01 3.723493E-01
6.687500E-01 8.312500E-01 3.013548E-01
8.125000E-01 8.750000E-01 5.300040E-01
8.750000E-01 8.750000E-01 5.902238E-01
8.750000E-01 9.375000E-01 6.251458E-01
8.750000E-01 1.000000E+00 6.387750E-01
8.125000E-01 1.000000E+00 5.737409E-01
7.875000E-01 9.125000E-01 5.209079E-01
8.312500E-01 9.187500E-01 5.759391E-01
8.375000E-01 9.625000E-01 5.971310E-01
7.937500E-01 9.562500E-01 5.449141E-01
9.375000E-01 8.750000E-01 6.251458E-01
1.000000E+00 8.750000E-01 6.387750E-01
1.000000E+00 9.375000E-01 6.765554E-01
1.000000E+00 1.000000E+00 6.909796E-01
9.375000E-01 1.000000E+00 6.765554E-01
9.125000E-01 9.125000E-01 6.382891E-01
9.562500E-01 9.187500E-01 6.610689E-01
9.625000E-01 9.625000E-01 6.794380E-01
9.187500E-01 9.562500E-01 6.610689E-01
8.125000E-01 7.500000E-01 4.056523E-01
8.750000E-01 7.500000E-01 4.519194E-01
8.750000E-01 8.125000E-01 5.300040E-01
7.875000E-01 7.875000E-01 4.250239E-01
8.312500E-01 7.937500E-01 4.747500E-01
8.375000E-01 8.375000E-01 5.246371E-01
7.937500E-01 8.312500E-01 4.747500E-01
9.375000E-01 7.500000E-01 4.785974E-01
1.000000E+00 7.500000E-01 4.891095E-01
1.000000E+00 8.125000E-01 5.737409E-01
9.125000E-01 7.875000E-01 5.209079E-01
9.562500E-01 7.937500E-01 5.449141E-01
9.625000E-01 8.375000E-01 5.971310E-01
9.187500E-01 8.312500E-01 5.759391E-01
5.625000E-01 6.250000E-01 5.147257E-02
6.250000E-01 6.250000E-01 1.018463E-01
6.250000E-01 6.875000E-01 1.466660E-01
5.375000E-01 6.625000E-01 3.967378E-02
5.812500E-01 6.687500E-01 8.880651E-02
5.875000E-01 7.125000E-01 1.159314E-01
5.437500E-01 7.062500E-01 5.776158E-02
6.875000E-01 6.250000E-01 1.466660E-01
7.500000E-01 6.250000E-01 1.875935E-01
7.500000E-01 6.875000E-01 2.710392E-01
6.625000E-01 6.625000E-01 1.645816E-01
7.062500E-01 6.687500E-01 2.111096E-01
7.125000E-01 7.125000E-01 2.642129E-01
6.687500E-01 7.062500E-01 2.111096E-01
5.625000E-01 5.000000E-01 -4.646415E-05
6.250000E-01 5.000000E-01 6.729292E-04
6.250000E-01 5.625000E-01 5.147257E-02
5.375000E-01 5.375000E-01 9.591308E-03
5.812500E-01 5.437500E-01 2.467156E-02
5.875000E-01 5.875000E-01 5.086159E-02
5.437500E-01 5.812500E-01 2.467156E-02
6.875000E-01 5.000000E-01 3.993207E-05
7.500000E-01 5.000000E-01 6.391599E-04
7.500000E-01 5.625000E-01 9.523633E-02
6.625000E-01 5.375000E-01 3.967378E-02
7.062500E-01 5.437500E-01 5.776158E-02
7.125000E-01 5.875000E-01 1.159314E-01
6.687500E-01 5.812500E-01 8.880651E-02
8.125000E-01 6.250000E-01 2.196134E-01
8.750000E-01 6.250000E-01 2.448691E-01
8.750000E-01 6.875000E-01 3.542335E-01
7.875000E-01 6.625000E-01 2.645124E-01
8.312500E-01 6.687500E-01 3.013548E-01
8.375000E-01 7.125000E-01 3.723493E-01
7.937500E-01 7.062500E-01 3.323945E-01
9.375000E-01 6.250000E-01 2.592234E-01
1.000000E+00 6.250000E-01 2.650083E-01
1.000000E+00 6.875000E-01 3.835653E-01
9.125000E-01 6.625000E-01 3.242636E-01
9.562500E-01 6.687500E-01 3.458145E-01
9.625000E-01 7.125000E-01 4.238910E-01
9.187500E-01 7.062500E-01 4.031633E-01
8.125000E-01 5.000000E-01 2.054050E-04
8.750000E-01 5.000000E-01 5.984787E-04
8.750000E-01 5.625000E-01 1.245909E-01
7.875000E-01 5.375000E-01 6.379962E-02
8.312500E-01 5.437500E-01 8.214420E-02
8.375000E-01 5.875000E-01 1.634376E-01
7.937500E-01 5.812500E-01 1.395043E-01
9.375000E-01 5.000000E-01 4.385331E-04
1.000000E+00 5.000000E-01 6.135081E-04
1.000000E+00 5.625000E-01 1.350394E-01
9.125000E-01 5.375000E-01 7.830609E-02
9.562500E-01 5.437500E-01 9.411614E-02
9.625000E-01 5.875000E-01 1.861583E-01
9.187500E-01 5.812500E-01 1.690573E-01
0.000000E+00 3.750000E-01 2.650083E-01
6.250000E-02 3.750000E-01 2.592234E-01
[...]
CELL_DATA 896
SCALARS sol float 1
LOOKUP_TABLE default
-6.400659E-01
-6.424092E-01
-6.572483E-01
-6.169928E-01
-6.596384E-01
-6.195496E-01
-6.699695E-01
-5.998102E-01
-5.969923E-01
-6.596384E-01
-6.195496E-01
-5.972058E-01
-6.809803E-01
-5.660429E-01
-5.659446E-01
-6.699695E-01
-6.424092E-01
-5.972058E-01
-5.655090E-01
-6.809803E-01
-5.521779E-01
-5.325038E-01
-5.461643E-01
-6.572483E-01
-6.400659E-01
-5.655090E-01
-5.969923E-01
-5.437171E-01
-5.152153E-01
-5.008074E-01
-5.038043E-01
-6.169928E-01
-5.461643E-01
-5.437171E-01
-5.659446E-01
-5.044589E-01
-4.866221E-01
-4.591350E-01
-4.838908E-01
-5.998102E-01
-5.038043E-01
-5.044589E-01
-5.521779E-01
-4.738814E-01
-4.461856E-01
-4.274017E-01
-4.331063E-01
-4.424912E-01
-5.660429E-01
-4.866221E-01
-4.838908E-01
-4.738814E-01
-5.152153E-01
-4.380695E-01
-4.047901E-01
-3.759452E-01
-3.860667E-01
-4.047643E-01
-5.325038E-01
-4.461856E-01
-4.424912E-01
-4.380695E-01
-5.008074E-01
-3.958588E-01
-3.667240E-01
-3.875862E-01
-3.606388E-01
-3.266826E-01
-3.659961E-01
-4.047901E-01
-4.331063E-01
-4.047643E-01
-3.958588E-01
-4.591350E-01
-3.615123E-01
-3.113087E-01
-3.350583E-01
-3.095554E-01
-2.852797E-01
-3.233597E-01
-3.667240E-01
-3.875862E-01
-3.860667E-01
-3.659961E-01
-3.615123E-01
-4.274017E-01
-3.167071E-01
-2.795679E-01
-2.968468E-01
-3.095999E-01
-2.313428E-01
-2.941461E-01
-3.113087E-01
-3.350583E-01
-3.606388E-01
-3.233597E-01
-3.167071E-01
-3.759452E-01
-2.886688E-01
-2.271910E-01
-2.520439E-01
-2.632106E-01
-1.898874E-01
-2.032415E-01
-2.447475E-01
-2.795679E-01
-2.968468E-01
-3.095999E-01
-3.095554E-01
-2.941461E-01
-2.886688E-01
-3.266826E-01
-2.430777E-01
-1.823923E-01
-2.041269E-01
-2.275718E-01
-1.285681E-01
-1.473660E-01
-2.217173E-01
-2.271910E-01
-2.520439E-01
-2.632106E-01
-2.852797E-01
-2.447475E-01
-2.430777E-01
-2.113351E-01
-1.723903E-01
-1.314011E-01
-1.717458E-01
-1.840239E-01
-1.141480E-01
-7.107888E-02
-1.803249E-01
-1.823923E-01
-2.032415E-01
-2.041269E-01
-2.275718E-01
-2.313428E-01
-2.217173E-01
-2.113351E-01
-1.767000E-01
-1.145872E-01
-7.136341E-02
-1.235420E-01
-1.426328E-01
-5.671712E-02
-2.626952E-02
-1.457234E-01
-1.314011E-01
-1.723903E-01
-1.473660E-01
-1.717458E-01
-1.840239E-01
-1.898874E-01
-1.803249E-01
-1.767000E-01
-1.408381E-01
-9.811995E-02
-6.455143E-02
-2.989743E-02
-1.053710E-01
-1.285490E-01
3.172273E-02
-1.140087E-01
-7.136341E-02
-1.145872E-01
-1.141480E-01
-1.235420E-01
-1.426328E-01
-1.285681E-01
-1.457234E-01
-1.408381E-01
-1.127484E-01
-4.821523E-02
-2.316315E-02
2.644770E-02
-5.630481E-02
-8.307684E-02
7.658970E-02
5.762025E-02
-8.081617E-02
-2.989743E-02
-6.455143E-02
-9.811995E-02
-5.671712E-02
-1.053710E-01
-1.285490E-01
-7.107888E-02
-1.140087E-01
-1.127484E-01
-8.106881E-02
-2.457107E-02
2.764936E-02
6.783181E-02
-4.809452E-02
-6.705869E-02
1.384380E-01
1.138265E-01
-6.320701E-02
2.644770E-02
-2.316315E-02
-4.821523E-02
-2.626952E-02
-5.630481E-02
-8.307684E-02
-8.081617E-02
-8.106881E-02
-6.504953E-02
2.154806E-02
6.911118E-02
4.871641E-02
1.239847E-01
-1.641593E-02
-3.227610E-02
1.497772E-01
1.954020E-01
-3.258292E-02
6.783181E-02
5.762025E-02
2.764936E-02
-2.457107E-02
3.172273E-02
-4.809452E-02
-6.705869E-02
-6.320701E-02
-6.504953E-02
-3.883149E-02
5.322504E-02
1.233909E-01
9.514938E-02
1.795058E-01
1.948022E-02
-1.540950E-02
2.048130E-01
2.367967E-01
-2.422669E-02
1.239847E-01
6.911118E-02
1.138265E-01
4.871641E-02
2.154806E-02
7.658970E-02
-1.641593E-02
-3.227610E-02
-3.258292E-02
-3.883149E-02
-2.570302E-02
5.121236E-02
9.951342E-02
1.283620E-01
1.776325E-01
2.243833E-01
3.249177E-02
1.346221E-02
2.900154E-01
-7.082066E-03
1.795058E-01
1.233909E-01
1.497772E-01
9.514938E-02
5.322504E-02
1.384380E-01
1.948022E-02
-1.540950E-02
-2.422669E-02
-2.570302E-02
-1.133802E-02
8.964311E-02
1.407780E-01
1.741851E-01
2.093067E-01
2.761187E-01
6.208062E-02
3.060643E-02
3.314627E-01
3.097672E-01
8.432674E-03
2.243833E-01
1.776325E-01
1.283620E-01
2.048130E-01
9.951342E-02
5.121236E-02
1.954020E-01
3.249177E-02
1.346221E-02
-7.082066E-03
-1.133802E-02
-3.818527E-03
8.749984E-02
1.329204E-01
1.822371E-01
2.552791E-01
3.077887E-01
5.998429E-02
2.560568E-02
3.844236E-01
3.577471E-01
1.140547E-02
2.761187E-01
2.093067E-01
1.741851E-01
2.367967E-01
1.407780E-01
8.964311E-02
6.208062E-02
3.060643E-02
8.432674E-03
-3.818527E-03
3.410217E-03
1.171347E-01
1.500636E-01
2.239064E-01
3.001525E-01
2.618269E-01
3.605534E-01
8.070847E-02
4.233524E-02
3.909563E-01
4.321886E-01
1.964481E-02
3.077887E-01
3.097672E-01
2.552791E-01
1.822371E-01
2.900154E-01
1.329204E-01
8.749984E-02
5.998429E-02
2.560568E-02
1.140547E-02
3.410217E-03
3.410217E-03
1.124396E-01
1.817897E-01
2.410483E-01
3.426459E-01
2.994206E-01
4.031054E-01
6.806016E-02
3.340157E-02
4.352172E-01
4.638660E-01
1.140547E-02
3.605534E-01
3.001525E-01
3.577471E-01
2.618269E-01
2.239064E-01
3.314627E-01
1.500636E-01
1.171347E-01
8.070847E-02
4.233524E-02
1.964481E-02
3.410217E-03
-3.818527E-03
1.376980E-01
2.232474E-01
1.741191E-01
2.893153E-01
3.353662E-01
3.928341E-01
4.445600E-01
6.806016E-02
4.233524E-02
5.042070E-01
8.432674E-03
4.031054E-01
3.426459E-01
3.909563E-01
2.994206E-01
2.410483E-01
3.844236E-01
1.817897E-01
1.124396E-01
6.806016E-02
3.340157E-02
1.140547E-02
-3.818527E-03
-1.133802E-02
1.376980E-01
2.487872E-01
1.956003E-01
3.164976E-01
3.701320E-01
4.099737E-01
4.838082E-01
8.070847E-02
2.560568E-02
5.359215E-01
5.148065E-01
-7.082066E-03
4.445600E-01
3.928341E-01
3.353662E-01
4.352172E-01
2.893153E-01
2.232474E-01
4.321886E-01
1.741191E-01
1.376980E-01
6.806016E-02
4.233524E-02
8.432674E-03
-1.133802E-02
-2.570302E-02
1.124396E-01
1.741191E-01
2.288107E-01
2.937704E-01
3.613686E-01
4.441072E-01
5.009438E-01
5.998429E-02
3.060643E-02
5.719286E-01
5.472537E-01
-2.422669E-02
4.838082E-01
4.099737E-01
3.701320E-01
4.638660E-01
3.164976E-01
2.487872E-01
1.956003E-01
1.376980E-01
8.070847E-02
2.560568E-02
-7.082066E-03
-2.570302E-02
-3.883149E-02
1.171347E-01
1.817897E-01
2.487872E-01
2.937704E-01
3.922451E-01
4.855578E-01
4.351421E-01
5.422837E-01
6.208062E-02
1.346221E-02
5.726614E-01
6.032156E-01
-3.258292E-02
5.009438E-01
5.148065E-01
4.441072E-01
3.613686E-01
5.042070E-01
2.937704E-01
2.288107E-01
1.741191E-01
1.124396E-01
5.998429E-02
3.060643E-02
-2.422669E-02
-3.883149E-02
-6.504953E-02
8.749984E-02
1.500636E-01
2.232474E-01
3.164976E-01
3.922451E-01
5.097970E-01
4.581746E-01
5.653890E-01
3.249177E-02
-1.540950E-02
5.994053E-01
6.203506E-01
-6.320701E-02
5.422837E-01
4.855578E-01
5.472537E-01
4.351421E-01
3.922451E-01
5.359215E-01
2.937704E-01
2.487872E-01
1.817897E-01
1.171347E-01
6.208062E-02
1.346221E-02
-3.258292E-02
-6.504953E-02
-8.106881E-02
8.964311E-02
1.329204E-01
2.410483E-01
3.613686E-01
2.893153E-01
4.351421E-01
4.913790E-01
5.482883E-01
5.971029E-01
1.948022E-02
-3.227610E-02
6.416632E-01
-8.081617E-02
5.653890E-01
5.097970E-01
5.726614E-01
4.581746E-01
3.922451E-01
5.719286E-01
3.164976E-01
2.232474E-01
1.500636E-01
8.749984E-02
3.249177E-02
-1.540950E-02
-6.320701E-02
-8.106881E-02
-1.127484E-01
5.121236E-02
1.407780E-01
2.239064E-01
3.701320E-01
2.994206E-01
4.441072E-01
5.097970E-01
5.482883E-01
6.178862E-01
-1.641593E-02
-6.705869E-02
6.587998E-01
6.415013E-01
-1.140087E-01
5.971029E-01
5.482883E-01
4.913790E-01
5.994053E-01
4.351421E-01
3.613686E-01
6.032156E-01
2.893153E-01
2.410483E-01
1.329204E-01
8.964311E-02
1.948022E-02
-3.227610E-02
-8.081617E-02
-1.127484E-01
-1.408381E-01
5.322504E-02
1.822371E-01
9.951342E-02
2.618269E-01
3.353662E-01
4.099737E-01
4.855578E-01
5.653890E-01
6.178862E-01
-4.809452E-02
-8.307684E-02
6.723541E-01
6.534756E-01
-1.457234E-01
6.178862E-01
5.482883E-01
5.097970E-01
6.203506E-01
4.441072E-01
3.701320E-01
2.994206E-01
2.239064E-01
1.407780E-01
5.121236E-02
-1.641593E-02
-6.705869E-02
-1.140087E-01
-1.408381E-01
-1.767000E-01
2.154806E-02
1.741851E-01
9.514938E-02
2.552791E-01
3.426459E-01
3.928341E-01
5.009438E-01
5.971029E-01
5.422837E-01
6.415013E-01
-5.630481E-02
-1.285490E-01
6.671919E-01
6.823243E-01
-1.803249E-01
6.178862E-01
6.415013E-01
5.653890E-01
4.855578E-01
6.416632E-01
4.099737E-01
3.353662E-01
2.618269E-01
1.822371E-01
9.951342E-02
5.322504E-02
-4.809452E-02
-8.307684E-02
-1.457234E-01
-1.767000E-01
-2.113351E-01
4.871641E-02
-2.457107E-02
1.283620E-01
2.093067E-01
3.001525E-01
4.031054E-01
4.838082E-01
5.994053E-01
5.472537E-01
6.416632E-01
-1.053710E-01
-1.426328E-01
6.723541E-01
6.823243E-01
-2.217173E-01
6.415013E-01
5.971029E-01
6.534756E-01
5.422837E-01
5.009438E-01
6.587998E-01
3.928341E-01
3.426459E-01
2.552791E-01
1.741851E-01
9.514938E-02
2.154806E-02
-5.630481E-02
-1.285490E-01
-1.803249E-01
-2.113351E-01
-2.430777E-01
2.764936E-02
-4.821523E-02
1.233909E-01
1.776325E-01
3.077887E-01
4.445600E-01
3.605534E-01
5.148065E-01
5.726614E-01
6.203506E-01
6.587998E-01
-1.235420E-01
-1.840239E-01
-2.447475E-01
6.416632E-01
5.994053E-01
6.671919E-01
5.472537E-01
4.838082E-01
6.723541E-01
4.031054E-01
3.001525E-01
2.093067E-01
1.283620E-01
4.871641E-02
-2.457107E-02
-1.053710E-01
-1.426328E-01
-2.217173E-01
-2.430777E-01
-2.886688E-01
6.911118E-02
-2.316315E-02
-9.811995E-02
1.795058E-01
2.761187E-01
4.352172E-01
3.577471E-01
5.042070E-01
5.719286E-01
6.032156E-01
-1.717458E-01
-2.275718E-01
-2.941461E-01
6.587998E-01
6.203506E-01
5.726614E-01
6.723541E-01
5.148065E-01
4.445600E-01
6.823243E-01
3.605534E-01
3.077887E-01
1.776325E-01
1.233909E-01
2.764936E-02
-4.821523E-02
-1.235420E-01
-1.840239E-01
-2.447475E-01
-2.886688E-01
-3.167071E-01
6.783181E-02
-6.455143E-02
-1.145872E-01
2.243833E-01
1.239847E-01
3.097672E-01
3.909563E-01
4.638660E-01
5.359215E-01
-2.041269E-01
-2.632106E-01
-3.233597E-01
6.032156E-01
5.719286E-01
6.823243E-01
5.042070E-01
4.352172E-01
3.577471E-01
2.761187E-01
1.795058E-01
6.911118E-02
-2.316315E-02
-9.811995E-02
-1.717458E-01
-2.275718E-01
-2.941461E-01
-3.167071E-01
-3.615123E-01
2.644770E-02
-7.136341E-02
-1.723903E-01
2.048130E-01
1.138265E-01
2.900154E-01
3.844236E-01
4.321886E-01
-2.520439E-01
-3.095999E-01
-3.659961E-01
5.359215E-01
4.638660E-01
3.909563E-01
3.097672E-01
2.243833E-01
1.239847E-01
6.783181E-02
-6.455143E-02
-1.145872E-01
-2.041269E-01
-2.632106E-01
-3.233597E-01
-3.615123E-01
-3.958588E-01
5.762025E-02
-2.989743E-02
-1.314011E-01
-1.823923E-01
1.497772E-01
2.367967E-01
3.314627E-01
-2.968468E-01
-3.350583E-01
-4.047643E-01
4.321886E-01
3.844236E-01
2.900154E-01
2.048130E-01
1.138265E-01
2.644770E-02
-7.136341E-02
-1.723903E-01
-2.520439E-01
-3.095999E-01
-3.659961E-01
-3.958588E-01
-4.380695E-01
3.172273E-02
-5.671712E-02
-1.473660E-01
-2.271910E-01
1.384380E-01
1.954020E-01
-3.113087E-01
-3.875862E-01
-4.424912E-01
3.314627E-01
2.367967E-01
1.497772E-01
5.762025E-02
-2.989743E-02
-1.314011E-01
-1.823923E-01
-2.968468E-01
-3.350583E-01
-4.047643E-01
-4.380695E-01
-4.738814E-01
7.658970E-02
-2.626952E-02
-1.141480E-01
-2.032415E-01
-2.795679E-01
-3.667240E-01
-4.047901E-01
-4.838908E-01
1.954020E-01
1.384380E-01
3.172273E-02
-5.671712E-02
-1.473660E-01
-2.271910E-01
-3.113087E-01
-3.875862E-01
-4.424912E-01
-4.738814E-01
-5.044589E-01
-7.107888E-02
-1.285681E-01
-2.313428E-01
-3.095554E-01
-3.860667E-01
-4.461856E-01
-5.038043E-01
7.658970E-02
-2.626952E-02
-1.141480E-01
-2.032415E-01
-2.795679E-01
-3.667240E-01
-4.047901E-01
-4.838908E-01
-5.044589E-01
-5.437171E-01
-1.898874E-01
-2.852797E-01
-3.606388E-01
-4.331063E-01
-4.866221E-01
-5.461643E-01
-7.107888E-02
-1.285681E-01
-2.313428E-01
-3.095554E-01
-3.860667E-01
-4.461856E-01
-5.038043E-01
-5.437171E-01
-5.655090E-01
-3.266826E-01
-3.759452E-01
-4.591350E-01
-5.152153E-01
-5.659446E-01
-1.898874E-01
-2.852797E-01
-3.606388E-01
-4.331063E-01
-4.866221E-01
-5.461643E-01
-5.655090E-01
-5.972058E-01
-4.274017E-01
-5.008074E-01
-5.521779E-01
-5.969923E-01
-3.266826E-01
-3.759452E-01
-4.591350E-01
-5.152153E-01
-5.659446E-01
-5.972058E-01
-6.195496E-01
-5.325038E-01
-5.660429E-01
-6.169928E-01
-4.274017E-01
-5.008074E-01
-5.521779E-01
-5.969923E-01
-6.195496E-01
-6.424092E-01
-5.998102E-01
-6.400659E-01
-5.325038E-01
-5.660429E-01
-6.169928E-01
-6.424092E-01
-6.596384E-01
-6.572483E-01
-5.998102E-01
-6.400659E-01
-6.596384E-01
-6.699695E-01
-6.572483E-01
-6.699695E-01
-6.809803E-01
-6.809803E-01
