# vtk DataFile Version 2.0
Grille
ASCII
DATASET POLYDATA
POINTS 481 float
0.000000E+00 8.750000E-01 -6.610559E-01
6.250000E-02 8.750000E-01 -6.470423E-01
1.250000E-01 8.750000E-01 -6.106623E-01
1.250000E-01 9.375000E-01 -6.470423E-01
1.250000E-01 1.000000E+00 -6.610559E-01
6.250000E-02 1.000000E+00 -7.004563E-01
0.000000E+00 1.000000E+00 -7.159531E-01
0.000000E+00 9.375000E-01 -7.004563E-01
3.750000E-02 9.125000E-01 -6.817244E-01
8.125000E-02 9.187500E-01 -6.683405E-01
8.750000E-02 9.625000E-01 -6.817244E-01
4.375000E-02 9.562500E-01 -7.006015E-01
1.875000E-01 8.750000E-01 -5.485084E-01
2.500000E-01 8.750000E-01 -4.671997E-01
2.500000E-01 9.375000E-01 -4.950951E-01
2.500000E-01 1.000000E+00 -5.057373E-01
1.875000E-01 1.000000E+00 -5.936278E-01
1.625000E-01 9.125000E-01 -5.988817E-01
2.062500E-01 9.187500E-01 -5.505263E-01
2.125000E-01 9.625000E-01 -5.560857E-01
1.687500E-01 9.562500E-01 -6.099984E-01
0.000000E+00 7.500000E-01 -5.057373E-01
6.250000E-02 7.500000E-01 -4.950951E-01
1.250000E-01 7.500000E-01 -4.671997E-01
1.250000E-01 8.125000E-01 -5.485084E-01
0.000000E+00 8.125000E-01 -5.936278E-01
3.750000E-02 7.875000E-01 -5.560857E-01
8.125000E-02 7.937500E-01 -5.505263E-01
8.750000E-02 8.375000E-01 -5.988817E-01
4.375000E-02 8.312500E-01 -6.099984E-01
1.875000E-01 7.500000E-01 -4.198119E-01
2.500000E-01 7.500000E-01 -3.574046E-01
2.500000E-01 8.125000E-01 -4.198119E-01
1.625000E-01 7.875000E-01 -4.886224E-01
2.062500E-01 7.937500E-01 -4.534541E-01
2.125000E-01 8.375000E-01 -4.886224E-01
1.687500E-01 8.312500E-01 -5.311386E-01
3.125000E-01 8.750000E-01 -3.664115E-01
3.750000E-01 8.750000E-01 -2.525574E-01
3.750000E-01 9.375000E-01 -2.677410E-01
3.750000E-01 1.000000E+00 -2.734013E-01
3.125000E-01 1.000000E+00 -3.964478E-01
2.875000E-01 9.125000E-01 -4.248238E-01
3.312500E-01 9.187500E-01 -3.488657E-01
3.375000E-01 9.625000E-01 -3.457776E-01
2.937500E-01 9.562500E-01 -4.265411E-01
4.375000E-01 8.750000E-01 -1.284777E-01
5.000000E-01 8.750000E-01 5.908434E-04
5.000000E-01 9.375000E-01 4.251252E-04
5.000000E-01 1.000000E+00 6.065429E-04
4.375000E-01 1.000000E+00 -1.388711E-01
4.125000E-01 9.125000E-01 -1.860448E-01
4.562500E-01 9.187500E-01 -9.404419E-02
4.625000E-01 9.625000E-01 -8.278189E-02
4.187500E-01 9.562500E-01 -1.781070E-01
3.125000E-01 7.500000E-01 -2.805284E-01
3.750000E-01 7.500000E-01 -1.931207E-01
3.750000E-01 8.125000E-01 -2.271353E-01
2.875000E-01 7.875000E-01 -3.466834E-01
3.312500E-01 7.937500E-01 -2.872707E-01
3.375000E-01 8.375000E-01 -3.039091E-01
2.937500E-01 8.312500E-01 -3.713431E-01
4.375000E-01 7.500000E-01 -9.846524E-02
5.000000E-01 7.500000E-01 6.330362E-04
5.000000E-01 8.125000E-01 1.835553E-04
4.125000E-01 7.875000E-01 -1.518962E-01
4.562500E-01 7.937500E-01 -7.728702E-02
4.625000E-01 8.375000E-01 -7.286818E-02
4.187500E-01 8.312500E-01 -1.549524E-01
0.000000E+00 6.250000E-01 -2.734013E-01
6.250000E-02 6.250000E-01 -2.677410E-01
1.250000E-01 6.250000E-01 -2.525574E-01
1.250000E-01 6.875000E-01 -3.664115E-01
0.000000E+00 6.875000E-01 -3.964478E-01
3.750000E-02 6.625000E-01 -3.457776E-01
8.125000E-02 6.687500E-01 -3.488657E-01
8.750000E-02 7.125000E-01 -4.248238E-01
4.375000E-02 7.062500E-01 -4.265411E-01
1.875000E-01 6.250000E-01 -2.271353E-01
2.500000E-01 6.250000E-01 -1.931207E-01
2.500000E-01 6.875000E-01 -2.805284E-01
1.625000E-01 6.625000E-01 -3.039091E-01
2.062500E-01 6.687500E-01 -2.872707E-01
2.125000E-01 7.125000E-01 -3.466834E-01
1.687500E-01 7.062500E-01 -3.713431E-01
0.000000E+00 5.000000E-01 6.065429E-04
6.250000E-02 5.000000E-01 4.251252E-04
1.250000E-01 5.000000E-01 5.908434E-04
1.250000E-01 5.625000E-01 -1.284777E-01
0.000000E+00 5.625000E-01 -1.388711E-01
3.750000E-02 5.375000E-01 -8.278189E-02
8.125000E-02 5.437500E-01 -9.404419E-02
8.750000E-02 5.875000E-01 -1.860448E-01
4.375000E-02 5.812500E-01 -1.781070E-01
1.875000E-01 5.000000E-01 1.835553E-04
2.500000E-01 5.000000E-01 6.330362E-04
2.500000E-01 5.625000E-01 -9.846524E-02
1.625000E-01 5.375000E-01 -7.286818E-02
2.062500E-01 5.437500E-01 -7.728702E-02
2.125000E-01 5.875000E-01 -1.518962E-01
1.687500E-01 5.812500E-01 -1.549524E-01
3.125000E-01 6.250000E-01 -1.518543E-01
3.750000E-01 6.250000E-01 -1.041964E-01
3.750000E-01 6.875000E-01 -1.518543E-01
2.875000E-01 6.625000E-01 -2.156782E-01
3.312500E-01 6.687500E-01 -1.818519E-01
3.375000E-01 7.125000E-01 -2.156782E-01
2.937500E-01 7.062500E-01 -2.595224E-01
4.375000E-01 6.250000E-01 -5.337384E-02
5.000000E-01 6.250000E-01 6.680832E-04
5.000000E-01 6.875000E-01 1.214867E-05
4.125000E-01 6.625000E-01 -9.453122E-02
4.562500E-01 6.687500E-01 -4.867048E-02
4.625000E-01 7.125000E-01 -5.176414E-02
4.187500E-01 7.062500E-01 -1.081145E-01
3.125000E-01 5.000000E-01 1.214867E-05
3.750000E-01 5.000000E-01 6.680832E-04
3.750000E-01 5.625000E-01 -5.337384E-02
2.875000E-01 5.375000E-01 -5.176414E-02
3.312500E-01 5.437500E-01 -4.867048E-02
3.375000E-01 5.875000E-01 -9.453122E-02
2.937500E-01 5.812500E-01 -1.081145E-01
4.375000E-01 5.000000E-01 -7.733165E-05
5.000000E-01 5.000000E-01 6.814504E-04
5.000000E-01 5.625000E-01 -7.733165E-05
4.125000E-01 5.375000E-01 -2.269395E-02
4.562500E-01 5.437500E-01 -1.256211E-02
4.625000E-01 5.875000E-01 -2.269395E-02
4.187500E-01 5.812500E-01 -4.473301E-02
5.625000E-01 8.750000E-01 1.290734E-01
6.250000E-01 8.750000E-01 2.537074E-01
6.250000E-01 9.375000E-01 2.685815E-01
6.250000E-01 1.000000E+00 2.745760E-01
5.625000E-01 1.000000E+00 1.399004E-01
5.375000E-01 9.125000E-01 8.111251E-02
5.812500E-01 9.187500E-01 1.751502E-01
5.875000E-01 9.625000E-01 1.928705E-01
5.437500E-01 9.562500E-01 9.749510E-02
6.875000E-01 8.750000E-01 3.670322E-01
7.500000E-01 8.750000E-01 4.682557E-01
7.500000E-01 9.375000E-01 4.958998E-01
7.500000E-01 1.000000E+00 5.067927E-01
6.875000E-01 1.000000E+00 3.974262E-01
6.625000E-01 9.125000E-01 3.359770E-01
7.062500E-01 9.187500E-01 4.177340E-01
7.125000E-01 9.625000E-01 4.392124E-01
6.687500E-01 9.562500E-01 3.583084E-01
5.625000E-01 7.500000E-01 9.865592E-02
6.250000E-01 7.500000E-01 1.943576E-01
6.250000E-01 8.125000E-01 2.275371E-01
5.375000E-01 7.875000E-01 6.608073E-02
5.812500E-01 7.937500E-01 1.445270E-01
5.875000E-01 8.375000E-01 1.693270E-01
5.437500E-01 8.312500E-01 8.508960E-02
6.875000E-01 7.500000E-01 2.808252E-01
7.500000E-01 7.500000E-01 3.585619E-01
7.500000E-01 8.125000E-01 4.203131E-01
6.625000E-01 7.875000E-01 2.740620E-01
7.062500E-01 7.937500E-01 3.444024E-01
7.125000E-01 8.375000E-01 3.858042E-01
6.687500E-01 8.312500E-01 3.122386E-01
8.125000E-01 8.750000E-01 5.491680E-01
8.750000E-01 8.750000E-01 6.115686E-01
8.750000E-01 9.375000E-01 6.477553E-01
8.750000E-01 1.000000E+00 6.618781E-01
8.125000E-01 1.000000E+00 5.944888E-01
7.875000E-01 9.125000E-01 5.397426E-01
8.312500E-01 9.187500E-01 5.967667E-01
8.375000E-01 9.625000E-01 6.187260E-01
7.937500E-01 9.562500E-01 5.646181E-01
9.375000E-01 8.750000E-01 6.477553E-01
1.000000E+00 8.750000E-01 6.618781E-01
1.000000E+00 9.375000E-01 7.010266E-01
1.000000E+00 1.000000E+00 7.159732E-01
9.375000E-01 1.000000E+00 7.010266E-01
9.125000E-01 9.125000E-01 6.613746E-01
9.562500E-01 9.187500E-01 6.849793E-01
9.625000E-01 9.625000E-01 7.040137E-01
9.187500E-01 9.562500E-01 6.849793E-01
8.125000E-01 7.500000E-01 4.203131E-01
8.750000E-01 7.500000E-01 4.682557E-01
8.750000E-01 8.125000E-01 5.491680E-01
7.875000E-01 7.875000E-01 4.403862E-01
8.312500E-01 7.937500E-01 4.919131E-01
8.375000E-01 8.375000E-01 5.436068E-01
7.937500E-01 8.312500E-01 4.919131E-01
9.375000E-01 7.500000E-01 4.958998E-01
1.000000E+00 7.500000E-01 5.067927E-01
1.000000E+00 8.125000E-01 5.944888E-01
9.125000E-01 7.875000E-01 5.397426E-01
9.562500E-01 7.937500E-01 5.646181E-01
9.625000E-01 8.375000E-01 6.187260E-01
9.187500E-01 8.312500E-01 5.967667E-01
5.625000E-01 6.250000E-01 5.330737E-02
6.250000E-01 6.250000E-01 1.055053E-01
6.250000E-01 6.875000E-01 1.519481E-01
5.375000E-01 6.625000E-01 4.108127E-02
5.812500E-01 6.687500E-01 9.199329E-02
5.875000E-01 7.125000E-01 1.201005E-01
5.437500E-01 7.062500E-01 5.982407E-02
6.875000E-01 6.250000E-01 1.519481E-01
7.500000E-01 6.250000E-01 1.943576E-01
7.500000E-01 6.875000E-01 2.808252E-01
6.625000E-01 6.625000E-01 1.705124E-01
7.062500E-01 6.687500E-01 2.187254E-01
7.125000E-01 7.125000E-01 2.737518E-01
6.687500E-01 7.062500E-01 2.187254E-01
5.625000E-01 5.000000E-01 -7.733165E-05
6.250000E-01 5.000000E-01 6.680832E-04
6.250000E-01 5.625000E-01 5.330737E-02
5.375000E-01 5.375000E-01 9.909447E-03
5.812500E-01 5.437500E-01 2.553580E-02
5.875000E-01 5.875000E-01 5.267427E-02
5.437500E-01 5.812500E-01 2.553580E-02
6.875000E-01 5.000000E-01 1.214867E-05
7.500000E-01 5.000000E-01 6.330362E-04
7.500000E-01 5.625000E-01 9.865592E-02
6.625000E-01 5.375000E-01 4.108127E-02
7.062500E-01 5.437500E-01 5.982407E-02
7.125000E-01 5.875000E-01 1.201005E-01
6.687500E-01 5.812500E-01 9.199329E-02
8.125000E-01 6.250000E-01 2.275371E-01
8.750000E-01 6.250000E-01 2.537074E-01
8.750000E-01 6.875000E-01 3.670322E-01
7.875000E-01 6.625000E-01 2.740620E-01
8.312500E-01 6.687500E-01 3.122386E-01
8.375000E-01 7.125000E-01 3.858042E-01
7.937500E-01 7.062500E-01 3.444024E-01
9.375000E-01 6.250000E-01 2.685815E-01
1.000000E+00 6.250000E-01 2.745760E-01
1.000000E+00 6.875000E-01 3.974262E-01
9.125000E-01 6.625000E-01 3.359770E-01
9.562500E-01 6.687500E-01 3.583084E-01
9.625000E-01 7.125000E-01 4.392124E-01
9.187500E-01 7.062500E-01 4.177340E-01
8.125000E-01 5.000000E-01 1.835553E-04
8.750000E-01 5.000000E-01 5.908434E-04
8.750000E-01 5.625000E-01 1.290734E-01
7.875000E-01 5.375000E-01 6.608073E-02
8.312500E-01 5.437500E-01 8.508960E-02
8.375000E-01 5.875000E-01 1.693270E-01
7.937500E-01 5.812500E-01 1.445270E-01
9.375000E-01 5.000000E-01 4.251252E-04
1.000000E+00 5.000000E-01 6.065429E-04
1.000000E+00 5.625000E-01 1.399004E-01
9.125000E-01 5.375000E-01 8.111251E-02
9.562500E-01 5.437500E-01 9.749510E-02
9.625000E-01 5.875000E-01 1.928705E-01
9.187500E-01 5.812500E-01 1.751502E-01
0.000000E+00 3.750000E-01 2.745760E-01
6.250000E-02 3.750000E-01 2.685815E-01
[...]
CELL_DATA 896
SCALARS sol float 1
LOOKUP_TABLE default
-6.632742E-01
-6.657024E-01
-6.810789E-01
-6.393655E-01
-6.835555E-01
-6.420150E-01
-6.942607E-01
-6.215607E-01
-6.186408E-01
-6.835555E-01
-6.420150E-01
-6.188621E-01
-7.056703E-01
-5.865706E-01
-5.864688E-01
-6.942607E-01
-6.657024E-01
-6.188621E-01
-5.860174E-01
-7.056703E-01
-5.722035E-01
-5.518169E-01
-5.659721E-01
-6.810789E-01
-6.632742E-01
-5.860174E-01
-6.186408E-01
-5.634364E-01
-5.339024E-01
-5.189727E-01
-5.220781E-01
-6.393655E-01
-5.659721E-01
-5.634364E-01
-5.864688E-01
-5.227564E-01
-5.042737E-01
-4.757912E-01
-5.014435E-01
-6.215607E-01
-5.220781E-01
-5.227564E-01
-5.722035E-01
-4.910717E-01
-4.623729E-01
-4.429087E-01
-4.488200E-01
-4.585447E-01
-5.865706E-01
-5.042737E-01
-5.014435E-01
-4.910717E-01
-5.339024E-01
-4.539628E-01
-4.194783E-01
-3.895888E-01
-4.000769E-01
-4.194516E-01
-5.518169E-01
-4.623729E-01
-4.585447E-01
-4.539628E-01
-5.189727E-01
-4.102236E-01
-3.800337E-01
-4.016514E-01
-3.737281E-01
-3.385422E-01
-3.792795E-01
-4.194783E-01
-4.488200E-01
-4.194516E-01
-4.102236E-01
-4.757912E-01
-3.746333E-01
-3.226116E-01
-3.472212E-01
-3.207948E-01
-2.956400E-01
-3.350991E-01
-3.800337E-01
-4.016514E-01
-4.000769E-01
-3.792795E-01
-3.746333E-01
-4.429087E-01
-3.282055E-01
-2.897214E-01
-3.076260E-01
-3.208410E-01
-2.397498E-01
-3.048275E-01
-3.226116E-01
-3.472212E-01
-3.737281E-01
-3.350991E-01
-3.282055E-01
-3.895888E-01
-2.991518E-01
-2.354477E-01
-2.612006E-01
-2.727717E-01
-1.967931E-01
-2.106309E-01
-2.536399E-01
-2.897214E-01
-3.076260E-01
-3.208410E-01
-3.207948E-01
-3.048275E-01
-2.991518E-01
-3.385422E-01
-2.519097E-01
-1.890266E-01
-2.115484E-01
-2.358422E-01
-1.332533E-01
-1.527320E-01
-2.297758E-01
-2.354477E-01
-2.612006E-01
-2.727717E-01
-2.956400E-01
-2.536399E-01
-2.519097E-01
-2.190175E-01
-1.786625E-01
-1.361889E-01
-1.779946E-01
-1.907174E-01
-1.183110E-01
-7.368214E-02
-1.868844E-01
-1.890266E-01
-2.106309E-01
-2.115484E-01
-2.358422E-01
-2.397498E-01
-2.297758E-01
-2.190175E-01
-1.831281E-01
-1.187661E-01
-7.397703E-02
-1.280452E-01
-1.478274E-01
-5.880032E-02
-2.725008E-02
-1.510298E-01
-1.361889E-01
-1.786625E-01
-1.527320E-01
-1.779946E-01
-1.907174E-01
-1.967931E-01
-1.868844E-01
-1.831281E-01
-1.459676E-01
-1.017025E-01
-6.691836E-02
-3.100941E-02
-1.092161E-01
-1.332335E-01
3.284226E-02
-1.181667E-01
-7.397703E-02
-1.187661E-01
-1.183110E-01
-1.280452E-01
-1.478274E-01
-1.332533E-01
-1.510298E-01
-1.459676E-01
-1.168606E-01
-4.999055E-02
-2.403126E-02
2.737616E-02
-5.837308E-02
-8.611462E-02
7.933402E-02
5.967758E-02
-8.377206E-02
-3.100941E-02
-6.691836E-02
-1.017025E-01
-5.880032E-02
-1.092161E-01
-1.332335E-01
-7.368214E-02
-1.181667E-01
-1.168606E-01
-8.403383E-02
-2.549014E-02
2.862133E-02
7.025893E-02
-4.986545E-02
-6.951637E-02
1.434220E-01
1.179193E-01
-6.552518E-02
2.737616E-02
-2.403126E-02
-4.999055E-02
-2.725008E-02
-5.837308E-02
-8.611462E-02
-8.377206E-02
-8.403383E-02
-6.743443E-02
2.229911E-02
7.158463E-02
5.045130E-02
1.284454E-01
-1.703965E-02
-3.347416E-02
1.551719E-01
2.024490E-01
-3.379208E-02
7.025893E-02
5.967758E-02
2.862133E-02
-2.549014E-02
3.284226E-02
-4.986545E-02
-6.951637E-02
-6.552518E-02
-6.743443E-02
-4.026693E-02
5.512323E-02
1.278300E-01
9.856578E-02
1.859770E-01
2.015642E-02
-1.599675E-02
2.122008E-01
2.453427E-01
-2.513323E-02
1.284454E-01
7.158463E-02
1.179193E-01
5.045130E-02
2.229911E-02
7.933402E-02
-1.703965E-02
-3.347416E-02
-3.379208E-02
-4.026693E-02
-2.666302E-02
5.303767E-02
1.030879E-01
1.329812E-01
1.840359E-01
2.324797E-01
3.363916E-02
1.392050E-02
3.004886E-01
-7.367733E-03
1.859770E-01
1.278300E-01
1.551719E-01
9.856578E-02
5.512323E-02
1.434220E-01
2.015642E-02
-1.599675E-02
-2.513323E-02
-2.666302E-02
-1.177780E-02
9.286016E-02
1.458468E-01
1.804637E-01
2.168572E-01
2.860887E-01
6.429954E-02
3.168557E-02
3.434369E-01
3.209557E-01
8.708850E-03
2.324797E-01
1.840359E-01
1.329812E-01
2.122008E-01
1.030879E-01
5.303767E-02
2.024490E-01
3.363916E-02
1.392050E-02
-7.367733E-03
-1.177780E-02
-3.985996E-03
9.063929E-02
1.377047E-01
1.888072E-01
2.644944E-01
3.189056E-01
6.212731E-02
2.650375E-02
3.983157E-01
3.706731E-01
1.178930E-02
2.860887E-01
2.168572E-01
1.804637E-01
2.453427E-01
1.458468E-01
9.286016E-02
6.429954E-02
3.168557E-02
8.708850E-03
-3.985996E-03
3.504522E-03
1.213473E-01
1.554687E-01
2.319856E-01
3.109928E-01
2.712792E-01
3.735811E-01
8.360199E-02
4.383915E-02
4.050849E-01
4.478105E-01
2.032702E-02
3.189056E-01
3.209557E-01
2.644944E-01
1.888072E-01
3.004886E-01
1.377047E-01
9.063929E-02
6.212731E-02
2.650375E-02
1.178930E-02
3.504522E-03
3.504522E-03
1.164822E-01
1.883437E-01
2.497483E-01
3.550250E-01
3.102343E-01
4.176740E-01
7.049565E-02
3.458196E-02
4.509487E-01
4.806350E-01
1.178930E-02
3.735811E-01
3.109928E-01
3.706731E-01
2.712792E-01
2.319856E-01
3.434369E-01
1.554687E-01
1.213473E-01
8.360199E-02
4.383915E-02
2.032702E-02
3.504522E-03
-3.985996E-03
1.426553E-01
2.313027E-01
1.803953E-01
2.997632E-01
3.474817E-01
4.070307E-01
4.606298E-01
7.049565E-02
4.383915E-02
5.224369E-01
8.708850E-03
4.176740E-01
3.550250E-01
4.050849E-01
3.102343E-01
2.497483E-01
3.983157E-01
1.883437E-01
1.164822E-01
7.049565E-02
3.458196E-02
1.178930E-02
-3.985996E-03
-1.177780E-02
1.426553E-01
2.577674E-01
2.026544E-01
3.279298E-01
3.835065E-01
4.247910E-01
5.012994E-01
8.360199E-02
2.650375E-02
5.552999E-01
5.334202E-01
-7.367733E-03
4.606298E-01
4.070307E-01
3.474817E-01
4.509487E-01
2.997632E-01
2.313027E-01
4.478105E-01
1.803953E-01
1.426553E-01
7.049565E-02
4.383915E-02
8.708850E-03
-1.177780E-02
-2.666302E-02
1.164822E-01
1.803953E-01
2.370675E-01
3.043796E-01
3.744258E-01
4.601606E-01
5.190554E-01
6.212731E-02
3.168557E-02
5.926110E-01
5.670424E-01
-2.513323E-02
5.012994E-01
4.247910E-01
3.835065E-01
4.806350E-01
3.279298E-01
2.577674E-01
2.026544E-01
1.426553E-01
8.360199E-02
2.650375E-02
-7.367733E-03
-2.666302E-02
-4.026693E-02
1.213473E-01
1.883437E-01
2.577674E-01
3.043796E-01
4.064204E-01
5.031123E-01
4.508708E-01
5.618924E-01
6.429954E-02
1.392050E-02
5.933702E-01
6.250310E-01
-3.379208E-02
5.190554E-01
5.334202E-01
4.601606E-01
3.744258E-01
5.224369E-01
3.043796E-01
2.370675E-01
1.803953E-01
1.164822E-01
6.212731E-02
3.168557E-02
-2.513323E-02
-4.026693E-02
-6.743443E-02
9.063929E-02
1.554687E-01
2.313027E-01
3.279298E-01
4.064204E-01
5.282293E-01
4.747375E-01
5.858344E-01
3.363916E-02
-1.599675E-02
6.210827E-01
6.427865E-01
-6.552518E-02
5.618924E-01
5.031123E-01
5.670424E-01
4.508708E-01
4.064204E-01
5.552999E-01
3.043796E-01
2.577674E-01
1.883437E-01
1.213473E-01
6.429954E-02
1.392050E-02
-3.379208E-02
-6.743443E-02
-8.403383E-02
9.286016E-02
1.377047E-01
2.497483E-01
3.744258E-01
2.997632E-01
4.508708E-01
5.091443E-01
5.681145E-01
6.186969E-01
2.015642E-02
-3.347416E-02
6.648709E-01
-8.377206E-02
5.858344E-01
5.282293E-01
5.933702E-01
4.747375E-01
4.064204E-01
5.926110E-01
3.279298E-01
2.313027E-01
1.554687E-01
9.063929E-02
3.363916E-02
-1.599675E-02
-6.552518E-02
-8.403383E-02
-1.168606E-01
5.303767E-02
1.458468E-01
2.319856E-01
3.835065E-01
3.102343E-01
4.601606E-01
5.282293E-01
5.681145E-01
6.402328E-01
-1.703965E-02
-6.951637E-02
6.826280E-01
6.647031E-01
-1.181667E-01
6.186969E-01
5.681145E-01
5.091443E-01
6.210827E-01
4.508708E-01
3.744258E-01
6.250310E-01
2.997632E-01
2.497483E-01
1.377047E-01
9.286016E-02
2.015642E-02
-3.347416E-02
-8.377206E-02
-1.168606E-01
-1.459676E-01
5.512323E-02
1.888072E-01
1.030879E-01
2.712792E-01
3.474817E-01
4.247910E-01
5.031123E-01
5.858344E-01
6.402328E-01
-4.986545E-02
-8.611462E-02
6.966732E-01
6.771111E-01
-1.510298E-01
6.402328E-01
5.681145E-01
5.282293E-01
6.427865E-01
4.601606E-01
3.835065E-01
3.102343E-01
2.319856E-01
1.458468E-01
5.303767E-02
-1.703965E-02
-6.951637E-02
-1.181667E-01
-1.459676E-01
-1.831281E-01
2.229911E-02
1.804637E-01
9.856578E-02
2.644944E-01
3.550250E-01
4.070307E-01
5.190554E-01
6.186969E-01
5.618924E-01
6.647031E-01
-5.837308E-02
-1.332335E-01
6.913241E-01
7.070045E-01
-1.868844E-01
6.402328E-01
6.647031E-01
5.858344E-01
5.031123E-01
6.648709E-01
4.247910E-01
3.474817E-01
2.712792E-01
1.888072E-01
1.030879E-01
5.512323E-02
-4.986545E-02
-8.611462E-02
-1.510298E-01
-1.831281E-01
-2.190175E-01
5.045130E-02
-2.549014E-02
1.329812E-01
2.168572E-01
3.109928E-01
4.176740E-01
5.012994E-01
6.210827E-01
5.670424E-01
6.648709E-01
-1.092161E-01
-1.478274E-01
6.966732E-01
7.070045E-01
-2.297758E-01
6.647031E-01
6.186969E-01
6.771111E-01
5.618924E-01
5.190554E-01
6.826280E-01
4.070307E-01
3.550250E-01
2.644944E-01
1.804637E-01
9.856578E-02
2.229911E-02
-5.837308E-02
-1.332335E-01
-1.868844E-01
-2.190175E-01
-2.519097E-01
2.862133E-02
-4.999055E-02
1.278300E-01
1.840359E-01
3.189056E-01
4.606298E-01
3.735811E-01
5.334202E-01
5.933702E-01
6.427865E-01
6.826280E-01
-1.280452E-01
-1.907174E-01
-2.536399E-01
6.648709E-01
6.210827E-01
6.913241E-01
5.670424E-01
5.012994E-01
6.966732E-01
4.176740E-01
3.109928E-01
2.168572E-01
1.329812E-01
5.045130E-02
-2.549014E-02
-1.092161E-01
-1.478274E-01
-2.297758E-01
-2.519097E-01
-2.991518E-01
7.158463E-02
-2.403126E-02
-1.017025E-01
1.859770E-01
2.860887E-01
4.509487E-01
3.706731E-01
5.224369E-01
5.926110E-01
6.250310E-01
-1.779946E-01
-2.358422E-01
-3.048275E-01
6.826280E-01
6.427865E-01
5.933702E-01
6.966732E-01
5.334202E-01
4.606298E-01
7.070045E-01
3.735811E-01
3.189056E-01
1.840359E-01
1.278300E-01
2.862133E-02
-4.999055E-02
-1.280452E-01
-1.907174E-01
-2.536399E-01
-2.991518E-01
-3.282055E-01
7.025893E-02
-6.691836E-02
-1.187661E-01
2.324797E-01
1.284454E-01
3.209557E-01
4.050849E-01
4.806350E-01
5.552999E-01
-2.115484E-01
-2.727717E-01
-3.350991E-01
6.250310E-01
5.926110E-01
7.070045E-01
5.224369E-01
4.509487E-01
3.706731E-01
2.860887E-01
1.859770E-01
7.158463E-02
-2.403126E-02
-1.017025E-01
-1.779946E-01
-2.358422E-01
-3.048275E-01
-3.282055E-01
-3.746333E-01
2.737616E-02
-7.397703E-02
-1.786625E-01
2.122008E-01
1.179193E-01
3.004886E-01
3.983157E-01
4.478105E-01
-2.612006E-01
-3.208410E-01
-3.792795E-01
5.552999E-01
4.806350E-01
4.050849E-01
3.209557E-01
2.324797E-01
1.284454E-01
7.025893E-02
-6.691836E-02
-1.187661E-01
-2.115484E-01
-2.727717E-01
-3.350991E-01
-3.746333E-01
-4.102236E-01
5.967758E-02
-3.100941E-02
-1.361889E-01
-1.890266E-01
1.551719E-01
2.453427E-01
3.434369E-01
-3.076260E-01
-3.472212E-01
-4.194516E-01
4.478105E-01
3.983157E-01
3.004886E-01
2.122008E-01
1.179193E-01
2.737616E-02
-7.397703E-02
-1.786625E-01
-2.612006E-01
-3.208410E-01
-3.792795E-01
-4.102236E-01
-4.539628E-01
3.284226E-02
-5.880032E-02
-1.527320E-01
-2.354477E-01
1.434220E-01
2.024490E-01
-3.226116E-01
-4.016514E-01
-4.585447E-01
3.434369E-01
2.453427E-01
1.551719E-01
5.967758E-02
-3.100941E-02
-1.361889E-01
-1.890266E-01
-3.076260E-01
-3.472212E-01
-4.194516E-01
-4.539628E-01
-4.910717E-01
7.933402E-02
-2.725008E-02
-1.183110E-01
-2.106309E-01
-2.897214E-01
-3.800337E-01
-4.194783E-01
-5.014435E-01
2.024490E-01
1.434220E-01
3.284226E-02
-5.880032E-02
-1.527320E-01
-2.354477E-01
-3.226116E-01
-4.016514E-01
-4.585447E-01
-4.910717E-01
-5.227564E-01
-7.368214E-02
-1.332533E-01
-2.397498E-01
-3.207948E-01
-4.000769E-01
-4.623729E-01
-5.220781E-01
7.933402E-02
-2.725008E-02
-1.183110E-01
-2.106309E-01
-2.897214E-01
-3.800337E-01
-4.194783E-01
-5.014435E-01
-5.227564E-01
-5.634364E-01
-1.967931E-01
-2.956400E-01
-3.737281E-01
-4.488200E-01
-5.042737E-01
-5.659721E-01
-7.368214E-02
-1.332533E-01
-2.397498E-01
-3.207948E-01
-4.000769E-01
-4.623729E-01
-5.220781E-01
-5.634364E-01
-5.860174E-01
-3.385422E-01
-3.895888E-01
-4.757912E-01
-5.339024E-01
-5.864688E-01
-1.967931E-01
-2.956400E-01
-3.737281E-01
-4.488200E-01
-5.042737E-01
-5.659721E-01
-5.860174E-01
-6.188621E-01
-4.429087E-01
-5.189727E-01
-5.722035E-01
-6.186408E-01
-3.385422E-01
-3.895888E-01
-4.757912E-01
-5.339024E-01
-5.864688E-01
-6.188621E-01
-6.420150E-01
-5.518169E-01
-5.865706E-01
-6.393655E-01
-4.429087E-01
-5.189727E-01
-5.722035E-01
-6.186408E-01
-6.420150E-01
-6.657024E-01
-6.215607E-01
-6.632742E-01
-5.518169E-01
-5.865706E-01
-6.393655E-01
-6.657024E-01
-6.835555E-01
-6.810789E-01
-6.215607E-01
-6.632742E-01
-6.835555E-01
-6.942607E-01
-6.810789E-01
-6.942607E-01
-7.056703E-01
-7.056703E-01
