# vtk DataFile Version 2.0
Grille
ASCII
DATASET POLYDATA
POINTS 481 float
0.000000E+00 8.750000E-01 -8.640163E-01
6.250000E-02 8.750000E-01 -8.457081E-01
1.250000E-01 8.750000E-01 -7.981767E-01
1.250000E-01 9.375000E-01 -8.457081E-01
1.250000E-01 1.000000E+00 -8.640163E-01
6.250000E-02 1.000000E+00 -9.154943E-01
0.000000E+00 1.000000E+00 -9.357406E-01
0.000000E+00 9.375000E-01 -9.154943E-01
3.750000E-02 9.125000E-01 -8.910208E-01
8.125000E-02 9.187500E-01 -8.735344E-01
8.750000E-02 9.625000E-01 -8.910208E-01
4.375000E-02 9.562500E-01 -9.156842E-01
1.875000E-01 8.750000E-01 -7.169716E-01
2.500000E-01 8.750000E-01 -6.107399E-01
2.500000E-01 9.375000E-01 -6.471859E-01
2.500000E-01 1.000000E+00 -6.610890E-01
1.875000E-01 1.000000E+00 -7.759209E-01
1.625000E-01 9.125000E-01 -7.827855E-01
2.062500E-01 9.187500E-01 -7.196077E-01
2.125000E-01 9.625000E-01 -7.268713E-01
1.687500E-01 9.562500E-01 -7.973098E-01
0.000000E+00 7.500000E-01 -6.610890E-01
6.250000E-02 7.500000E-01 -6.471859E-01
1.250000E-01 7.500000E-01 -6.107399E-01
1.250000E-01 8.125000E-01 -7.169716E-01
0.000000E+00 8.125000E-01 -7.759209E-01
3.750000E-02 7.875000E-01 -7.268713E-01
8.125000E-02 7.937500E-01 -7.196077E-01
8.750000E-02 8.375000E-01 -7.827855E-01
4.375000E-02 8.312500E-01 -7.973098E-01
1.875000E-01 7.500000E-01 -5.488269E-01
2.500000E-01 7.500000E-01 -4.672901E-01
2.500000E-01 8.125000E-01 -5.488269E-01
1.625000E-01 7.875000E-01 -6.387294E-01
2.062500E-01 7.937500E-01 -5.927808E-01
2.125000E-01 8.375000E-01 -6.387294E-01
1.687500E-01 8.312500E-01 -6.942781E-01
3.125000E-01 8.750000E-01 -4.790581E-01
3.750000E-01 8.750000E-01 -3.303050E-01
3.750000E-01 9.375000E-01 -3.501427E-01
3.750000E-01 1.000000E+00 -3.575368E-01
3.125000E-01 1.000000E+00 -5.183010E-01
2.875000E-01 9.125000E-01 -5.553752E-01
3.312500E-01 9.187500E-01 -4.561336E-01
3.375000E-01 9.625000E-01 -4.520989E-01
2.937500E-01 9.562500E-01 -5.576189E-01
4.375000E-01 8.750000E-01 -1.681922E-01
5.000000E-01 8.750000E-01 4.387398E-04
5.000000E-01 9.375000E-01 2.224399E-04
5.000000E-01 1.000000E+00 4.606293E-04
4.375000E-01 1.000000E+00 -1.817712E-01
4.125000E-01 9.125000E-01 -2.434051E-01
4.562500E-01 9.187500E-01 -1.232035E-01
4.625000E-01 9.625000E-01 -1.084890E-01
4.187500E-01 9.562500E-01 -2.330342E-01
3.125000E-01 7.500000E-01 -3.668496E-01
3.750000E-01 7.500000E-01 -2.526493E-01
3.750000E-01 8.125000E-01 -2.970904E-01
2.875000E-01 7.875000E-01 -4.532829E-01
3.312500E-01 7.937500E-01 -3.756583E-01
3.375000E-01 8.375000E-01 -3.973971E-01
2.937500E-01 8.312500E-01 -4.855018E-01
4.375000E-01 7.500000E-01 -1.289798E-01
5.000000E-01 7.500000E-01 4.942854E-04
5.000000E-01 8.125000E-01 -9.316961E-05
4.125000E-01 7.875000E-01 -1.987889E-01
4.562500E-01 7.937500E-01 -1.013098E-01
4.625000E-01 8.375000E-01 -9.553682E-02
4.187500E-01 8.312500E-01 -2.027823E-01
0.000000E+00 6.250000E-01 -3.575368E-01
6.250000E-02 6.250000E-01 -3.501427E-01
1.250000E-01 6.250000E-01 -3.303050E-01
1.250000E-01 6.875000E-01 -4.790581E-01
0.000000E+00 6.875000E-01 -5.183010E-01
3.750000E-02 6.625000E-01 -4.520989E-01
8.125000E-02 6.687500E-01 -4.561336E-01
8.750000E-02 7.125000E-01 -5.553752E-01
4.375000E-02 7.062500E-01 -5.576189E-01
1.875000E-01 6.250000E-01 -2.970904E-01
2.500000E-01 6.250000E-01 -2.526493E-01
2.500000E-01 6.875000E-01 -3.668496E-01
1.625000E-01 6.625000E-01 -3.973971E-01
2.062500E-01 6.687500E-01 -3.756583E-01
2.125000E-01 7.125000E-01 -4.532829E-01
1.687500E-01 7.062500E-01 -4.855018E-01
0.000000E+00 5.000000E-01 4.606293E-04
6.250000E-02 5.000000E-01 2.224399E-04
1.250000E-01 5.000000E-01 4.387398E-04
1.250000E-01 5.625000E-01 -1.681922E-01
0.000000E+00 5.625000E-01 -1.817712E-01
3.750000E-02 5.375000E-01 -1.084890E-01
8.125000E-02 5.437500E-01 -1.232035E-01
8.750000E-02 5.875000E-01 -2.434051E-01
4.375000E-02 5.812500E-01 -2.330342E-01
1.875000E-01 5.000000E-01 -9.316961E-05
2.500000E-01 5.000000E-01 4.942854E-04
2.500000E-01 5.625000E-01 -1.289798E-01
1.625000E-01 5.375000E-01 -9.553682E-02
2.062500E-01 5.437500E-01 -1.013098E-01
2.125000E-01 5.875000E-01 -1.987889E-01
1.687500E-01 5.812500E-01 -2.027823E-01
3.125000E-01 6.250000E-01 -1.987336E-01
3.750000E-01 6.250000E-01 -1.364673E-01
3.750000E-01 6.875000E-01 -1.987336E-01
2.875000E-01 6.625000E-01 -2.821212E-01
3.312500E-01 6.687500E-01 -2.379259E-01
3.375000E-01 7.125000E-01 -2.821212E-01
2.937500E-01 7.062500E-01 -3.394053E-01
4.375000E-01 6.250000E-01 -7.006623E-02
5.000000E-01 6.250000E-01 5.406752E-04
5.000000E-01 6.875000E-01 -3.164743E-04
4.125000E-01 6.625000E-01 -1.238396E-01
4.562500E-01 6.687500E-01 -6.392115E-02
4.625000E-01 7.125000E-01 -6.796345E-02
4.187500E-01 7.062500E-01 -1.415869E-01
3.125000E-01 5.000000E-01 -3.164743E-04
3.750000E-01 5.000000E-01 5.406752E-04
3.750000E-01 5.625000E-01 -7.006623E-02
2.875000E-01 5.375000E-01 -6.796345E-02
3.312500E-01 5.437500E-01 -6.392115E-02
3.375000E-01 5.875000E-01 -1.238396E-01
2.937500E-01 5.812500E-01 -1.415869E-01
4.375000E-01 5.000000E-01 -4.328939E-04
5.000000E-01 5.000000E-01 5.583936E-04
5.000000E-01 5.625000E-01 -4.328939E-04
4.125000E-01 5.375000E-01 -2.998215E-02
4.562500E-01 5.437500E-01 -1.674449E-02
4.625000E-01 5.875000E-01 -2.998215E-02
4.187500E-01 5.812500E-01 -5.877701E-02
5.625000E-01 8.750000E-01 1.683042E-01
6.250000E-01 8.750000E-01 3.311411E-01
6.250000E-01 9.375000E-01 3.505748E-01
6.250000E-01 1.000000E+00 3.584076E-01
5.625000E-01 1.000000E+00 1.824501E-01
5.375000E-01 9.125000E-01 1.056419E-01
5.812500E-01 9.187500E-01 2.285050E-01
5.875000E-01 9.625000E-01 2.516571E-01
5.437500E-01 9.562500E-01 1.270462E-01
6.875000E-01 8.750000E-01 4.792027E-01
7.500000E-01 8.750000E-01 6.114531E-01
7.500000E-01 9.375000E-01 6.475713E-01
7.500000E-01 1.000000E+00 6.618037E-01
6.875000E-01 1.000000E+00 5.189134E-01
6.625000E-01 9.125000E-01 4.386282E-01
7.062500E-01 9.187500E-01 5.454460E-01
7.125000E-01 9.625000E-01 5.735083E-01
6.687500E-01 9.562500E-01 4.678047E-01
5.625000E-01 7.500000E-01 1.285635E-01
6.250000E-01 7.500000E-01 2.535996E-01
6.250000E-01 8.125000E-01 2.969493E-01
5.375000E-01 7.875000E-01 8.600279E-02
5.812500E-01 7.937500E-01 1.884951E-01
5.875000E-01 8.375000E-01 2.208966E-01
5.437500E-01 8.312500E-01 1.108380E-01
6.875000E-01 7.500000E-01 3.665715E-01
7.500000E-01 7.500000E-01 4.681359E-01
7.500000E-01 8.125000E-01 5.488154E-01
6.625000E-01 7.875000E-01 3.577349E-01
7.062500E-01 7.937500E-01 4.496365E-01
7.125000E-01 8.375000E-01 5.037289E-01
6.687500E-01 8.312500E-01 4.076134E-01
8.125000E-01 8.750000E-01 7.171673E-01
8.750000E-01 8.750000E-01 7.986949E-01
8.750000E-01 9.375000E-01 8.459742E-01
8.750000E-01 1.000000E+00 8.644261E-01
8.125000E-01 1.000000E+00 7.763802E-01
7.875000E-01 9.125000E-01 7.048526E-01
8.312500E-01 9.187500E-01 7.793563E-01
8.375000E-01 9.625000E-01 8.080469E-01
7.937500E-01 9.562500E-01 7.373531E-01
9.375000E-01 8.750000E-01 8.459742E-01
1.000000E+00 8.750000E-01 8.644261E-01
1.000000E+00 9.375000E-01 9.155747E-01
1.000000E+00 1.000000E+00 9.351025E-01
9.375000E-01 1.000000E+00 9.155747E-01
9.125000E-01 9.125000E-01 8.637680E-01
9.562500E-01 9.187500E-01 8.946084E-01
9.625000E-01 9.625000E-01 9.194775E-01
9.187500E-01 9.562500E-01 8.946084E-01
8.125000E-01 7.500000E-01 5.488154E-01
8.750000E-01 7.500000E-01 6.114531E-01
8.750000E-01 8.125000E-01 7.171673E-01
7.875000E-01 7.875000E-01 5.750411E-01
8.312500E-01 7.937500E-01 6.423623E-01
8.375000E-01 8.375000E-01 7.099017E-01
7.937500E-01 8.312500E-01 6.423623E-01
9.375000E-01 7.500000E-01 6.475713E-01
1.000000E+00 7.500000E-01 6.618037E-01
1.000000E+00 8.125000E-01 7.763802E-01
9.125000E-01 7.875000E-01 7.048526E-01
9.562500E-01 7.937500E-01 7.373531E-01
9.625000E-01 8.375000E-01 8.080469E-01
9.187500E-01 8.312500E-01 7.793563E-01
5.625000E-01 6.250000E-01 6.931516E-02
6.250000E-01 6.250000E-01 1.375126E-01
6.250000E-01 6.875000E-01 1.981911E-01
5.375000E-01 6.625000E-01 5.334112E-02
5.812500E-01 6.687500E-01 1.198590E-01
5.875000E-01 7.125000E-01 1.565816E-01
5.437500E-01 7.062500E-01 7.782874E-02
6.875000E-01 6.250000E-01 1.981911E-01
7.500000E-01 6.250000E-01 2.535996E-01
7.500000E-01 6.875000E-01 3.665715E-01
6.625000E-01 6.625000E-01 2.224455E-01
7.062500E-01 6.687500E-01 2.854368E-01
7.125000E-01 7.125000E-01 3.573302E-01
6.687500E-01 7.062500E-01 2.854368E-01
5.625000E-01 5.000000E-01 -4.328939E-04
6.250000E-01 5.000000E-01 5.406752E-04
6.250000E-01 5.625000E-01 6.931516E-02
5.375000E-01 5.375000E-01 1.261492E-02
5.812500E-01 5.437500E-01 3.303103E-02
5.875000E-01 5.875000E-01 6.848814E-02
5.437500E-01 5.812500E-01 3.303103E-02
6.875000E-01 5.000000E-01 -3.164743E-04
7.500000E-01 5.000000E-01 4.942854E-04
7.500000E-01 5.625000E-01 1.285635E-01
6.625000E-01 5.375000E-01 5.334112E-02
7.062500E-01 5.437500E-01 7.782874E-02
7.125000E-01 5.875000E-01 1.565816E-01
6.687500E-01 5.812500E-01 1.198590E-01
8.125000E-01 6.250000E-01 2.969493E-01
8.750000E-01 6.250000E-01 3.311411E-01
8.750000E-01 6.875000E-01 4.792027E-01
7.875000E-01 6.625000E-01 3.577349E-01
8.312500E-01 6.687500E-01 4.076134E-01
8.375000E-01 7.125000E-01 5.037289E-01
7.937500E-01 7.062500E-01 4.496365E-01
9.375000E-01 6.250000E-01 3.505748E-01
1.000000E+00 6.250000E-01 3.584076E-01
1.000000E+00 6.875000E-01 5.189134E-01
9.125000E-01 6.625000E-01 4.386282E-01
9.562500E-01 6.687500E-01 4.678047E-01
9.625000E-01 7.125000E-01 5.735083E-01
9.187500E-01 7.062500E-01 5.454460E-01
8.125000E-01 5.000000E-01 -9.316961E-05
8.750000E-01 5.000000E-01 4.387398E-04
8.750000E-01 5.625000E-01 1.683042E-01
7.875000E-01 5.375000E-01 8.600279E-02
8.312500E-01 5.437500E-01 1.108380E-01
8.375000E-01 5.875000E-01 2.208966E-01
7.937500E-01 5.812500E-01 1.884951E-01
9.375000E-01 5.000000E-01 2.224399E-04
1.000000E+00 5.000000E-01 4.606293E-04
1.000000E+00 5.625000E-01 1.824501E-01
9.125000E-01 5.375000E-01 1.056419E-01
9.562500E-01 5.437500E-01 1.270462E-01
9.625000E-01 5.875000E-01 2.516571E-01
9.187500E-01 5.812500E-01 2.285050E-01
0.000000E+00 3.750000E-01 3.584076E-01
6.250000E-02 3.750000E-01 3.505748E-01
[...]
CELL_DATA 896
SCALARS sol float 1
LOOKUP_TABLE default
-8.669151E-01
-8.700877E-01
-8.901771E-01
-8.356780E-01
-8.934131E-01
-8.391397E-01
-9.073998E-01
-8.124157E-01
-8.086011E-01
-8.934131E-01
-8.391397E-01
-8.088901E-01
-9.223064E-01
-7.667007E-01
-7.665677E-01
-9.073998E-01
-8.700877E-01
-8.088901E-01
-7.659779E-01
-9.223064E-01
-7.479296E-01
-7.212937E-01
-7.397883E-01
-8.901771E-01
-8.669151E-01
-7.659779E-01
-8.086011E-01
-7.364755E-01
-6.978883E-01
-6.783821E-01
-6.824397E-01
-8.356780E-01
-7.397883E-01
-7.364755E-01
-7.665677E-01
-6.833264E-01
-6.591778E-01
-6.219646E-01
-6.554803E-01
-8.124157E-01
-6.824397E-01
-6.833264E-01
-7.479296E-01
-6.419294E-01
-6.044336E-01
-5.790030E-01
-5.867267E-01
-5.994321E-01
-7.667007E-01
-6.591778E-01
-6.554803E-01
-6.419294E-01
-6.978883E-01
-5.934457E-01
-5.483911E-01
-5.093396E-01
-5.230426E-01
-5.483562E-01
-7.212937E-01
-6.044336E-01
-5.994321E-01
-5.934457E-01
-6.783821E-01
-5.362993E-01
-4.968557E-01
-5.250999E-01
-4.886172E-01
-4.426455E-01
-4.958705E-01
-5.483911E-01
-5.867267E-01
-5.483562E-01
-5.362993E-01
-6.219646E-01
-4.898000E-01
-4.218323E-01
-4.539857E-01
-4.194584E-01
-3.865928E-01
-4.381477E-01
-4.968557E-01
-5.250999E-01
-5.230426E-01
-4.958705E-01
-4.898000E-01
-5.790030E-01
-4.291409E-01
-3.788605E-01
-4.022534E-01
-4.195191E-01
-3.135712E-01
-3.985969E-01
-4.218323E-01
-4.539857E-01
-4.886172E-01
-4.381477E-01
-4.291409E-01
-5.093396E-01
-3.911817E-01
-3.079509E-01
-3.415975E-01
-3.567153E-01
-2.574474E-01
-2.755273E-01
-3.317191E-01
-3.788605E-01
-4.022534E-01
-4.195191E-01
-4.194584E-01
-3.985969E-01
-3.911817E-01
-4.426455E-01
-3.294587E-01
-2.473008E-01
-2.767259E-01
-3.084660E-01
-1.744314E-01
-1.998809E-01
-3.005401E-01
-3.079509E-01
-3.415975E-01
-3.567153E-01
-3.865928E-01
-3.317191E-01
-3.294587E-01
-2.864841E-01
-2.337599E-01
-1.782669E-01
-2.328872E-01
-2.495096E-01
-1.549089E-01
-9.659985E-02
-2.445014E-01
-2.473008E-01
-2.755273E-01
-2.767259E-01
-3.084660E-01
-3.135712E-01
-3.005401E-01
-2.864841E-01
-2.395936E-01
-1.555038E-01
-9.698567E-02
-1.676270E-01
-1.934727E-01
-7.715670E-02
-3.593531E-02
-1.976566E-01
-1.782669E-01
-2.337599E-01
-1.998809E-01
-2.328872E-01
-2.495096E-01
-2.574474E-01
-2.445014E-01
-2.395936E-01
-1.910423E-01
-1.332096E-01
-8.776344E-02
-4.084745E-02
-1.430262E-01
-1.744054E-01
4.257641E-02
-1.547200E-01
-9.698567E-02
-1.555038E-01
-1.549089E-01
-1.676270E-01
-1.934727E-01
-1.744314E-01
-1.976566E-01
-1.910423E-01
-1.530135E-01
-6.564660E-02
-3.173042E-02
3.543436E-02
-7.659843E-02
-1.128434E-01
1.033190E-01
7.763684E-02
-1.097826E-01
-4.084745E-02
-8.776344E-02
-1.332096E-01
-7.715670E-02
-1.430262E-01
-1.744054E-01
-9.659985E-02
-1.547200E-01
-1.530135E-01
-1.101244E-01
-3.363623E-02
3.706120E-02
9.146163E-02
-6.548298E-02
-9.115718E-02
1.870511E-01
1.537310E-01
-8.594234E-02
3.543436E-02
-3.173042E-02
-6.564660E-02
-3.593531E-02
-7.659843E-02
-1.128434E-01
-1.097826E-01
-1.101244E-01
-8.843686E-02
2.880130E-02
9.319366E-02
6.558255E-02
1.674837E-01
-2.259521E-02
-4.406702E-02
2.024027E-01
2.641716E-01
-4.448223E-02
9.146163E-02
7.763684E-02
3.706120E-02
-3.363623E-02
4.257641E-02
-6.548298E-02
-9.115718E-02
-8.594234E-02
-8.843686E-02
-5.294180E-02
7.168685E-02
1.666796E-01
1.284453E-01
2.426501E-01
2.600219E-02
-2.123232E-02
2.769123E-01
3.202132E-01
-3.316924E-02
1.674837E-01
9.319366E-02
1.537310E-01
6.558255E-02
2.880130E-02
1.033190E-01
-2.259521E-02
-4.406702E-02
-4.448223E-02
-5.294180E-02
-3.516788E-02
6.896217E-02
1.343538E-01
1.734099E-01
2.401140E-01
3.034069E-01
4.361780E-02
1.785511E-02
3.922624E-01
-9.958124E-03
2.426501E-01
1.666796E-01
2.024027E-01
1.284453E-01
7.168685E-02
1.870511E-01
2.600219E-02
-2.123232E-02
-3.316924E-02
-3.516788E-02
-1.571985E-02
1.209913E-01
1.902194E-01
2.354470E-01
2.829957E-01
3.734480E-01
8.367630E-02
4.106565E-02
4.483752E-01
4.190026E-01
1.104627E-02
3.034069E-01
2.401140E-01
1.734099E-01
2.769123E-01
1.343538E-01
6.896217E-02
2.641716E-01
4.361780E-02
1.785511E-02
-9.958124E-03
-1.571985E-02
-5.539663E-03
1.180898E-01
1.795816E-01
2.463480E-01
3.452346E-01
4.163240E-01
8.083844E-02
3.429562E-02
5.200754E-01
4.839596E-01
1.507102E-02
3.734480E-01
2.829957E-01
2.354470E-01
3.202132E-01
1.902194E-01
1.209913E-01
8.367630E-02
4.106565E-02
1.104627E-02
-5.539663E-03
4.246805E-03
1.582106E-01
2.027908E-01
3.027612E-01
4.059857E-01
3.540992E-01
4.877590E-01
1.088956E-01
5.694478E-02
5.289197E-01
5.847418E-01
2.622566E-02
4.163240E-01
4.190026E-01
3.452346E-01
2.463480E-01
3.922624E-01
1.795816E-01
1.180898E-01
8.083844E-02
3.429562E-02
1.507102E-02
4.246805E-03
4.246805E-03
1.518542E-01
2.457425E-01
3.259687E-01
4.635150E-01
4.049949E-01
5.453673E-01
9.177197E-02
4.485007E-02
5.888419E-01
6.276278E-01
1.507102E-02
4.877590E-01
4.059857E-01
4.839596E-01
3.540992E-01
3.027612E-01
4.483752E-01
2.027908E-01
1.582106E-01
1.088956E-01
5.694478E-02
2.622566E-02
4.246805E-03
-5.539663E-03
1.860497E-01
3.018693E-01
2.353578E-01
3.913143E-01
4.536596E-01
5.314616E-01
6.014902E-01
9.177197E-02
5.694478E-02
6.822427E-01
1.104627E-02
5.453673E-01
4.635150E-01
5.289197E-01
4.049949E-01
3.259687E-01
5.200754E-01
2.457425E-01
1.518542E-01
9.177197E-02
4.485007E-02
1.507102E-02
-5.539663E-03
-1.571985E-02
1.860497E-01
3.364462E-01
2.644397E-01
4.281146E-01
5.007269E-01
5.546658E-01
6.546257E-01
1.088956E-01
3.429562E-02
7.251790E-01
6.965924E-01
-9.958124E-03
6.014902E-01
5.314616E-01
4.536596E-01
5.888419E-01
3.913143E-01
3.018693E-01
5.847418E-01
2.353578E-01
1.860497E-01
9.177197E-02
5.694478E-02
1.104627E-02
-1.571985E-02
-3.516788E-02
1.518542E-01
2.353578E-01
3.094013E-01
3.973459E-01
4.888626E-01
6.008769E-01
6.778243E-01
8.083844E-02
4.106565E-02
7.739268E-01
7.405207E-01
-3.316924E-02
6.546257E-01
5.546658E-01
5.007269E-01
6.276278E-01
4.281146E-01
3.364462E-01
2.644397E-01
1.860497E-01
1.088956E-01
3.429562E-02
-9.958124E-03
-3.516788E-02
-5.294180E-02
1.582106E-01
2.457425E-01
3.364462E-01
3.973459E-01
5.306641E-01
6.569942E-01
5.887396E-01
7.337921E-01
8.367630E-02
1.785511E-02
7.749188E-01
8.162844E-01
-4.448223E-02
6.778243E-01
6.965924E-01
6.008769E-01
4.888626E-01
6.822427E-01
3.973459E-01
3.094013E-01
2.353578E-01
1.518542E-01
8.083844E-02
4.106565E-02
-3.316924E-02
-5.294180E-02
-8.843686E-02
1.180898E-01
2.027908E-01
3.018693E-01
4.281146E-01
5.306641E-01
6.898104E-01
6.199219E-01
7.650728E-01
4.361780E-02
-2.123232E-02
8.111258E-01
8.394824E-01
-8.594234E-02
7.337921E-01
6.569942E-01
7.405207E-01
5.887396E-01
5.306641E-01
7.251790E-01
3.973459E-01
3.364462E-01
2.457425E-01
1.582106E-01
8.367630E-02
1.785511E-02
-4.448223E-02
-8.843686E-02
-1.101244E-01
1.209913E-01
1.795816E-01
3.259687E-01
4.888626E-01
3.913143E-01
5.887396E-01
6.648754E-01
7.419213E-01
8.080085E-01
2.600219E-02
-4.406702E-02
8.683363E-01
-1.097826E-01
7.650728E-01
6.898104E-01
7.749188E-01
6.199219E-01
5.306641E-01
7.739268E-01
4.281146E-01
3.018693E-01
2.027908E-01
1.180898E-01
4.361780E-02
-2.123232E-02
-8.594234E-02
-1.101244E-01
-1.530135E-01
6.896217E-02
1.902194E-01
3.027612E-01
5.007269E-01
4.049949E-01
6.008769E-01
6.898104E-01
7.419213E-01
8.361457E-01
-2.259521E-02
-9.115718E-02
8.915364E-01
8.681169E-01
-1.547200E-01
8.080085E-01
7.419213E-01
6.648754E-01
8.111258E-01
5.887396E-01
4.888626E-01
8.162844E-01
3.913143E-01
3.259687E-01
1.795816E-01
1.209913E-01
2.600219E-02
-4.406702E-02
-1.097826E-01
-1.530135E-01
-1.910423E-01
7.168685E-02
2.463480E-01
1.343538E-01
3.540992E-01
4.536596E-01
5.546658E-01
6.569942E-01
7.650728E-01
8.361457E-01
-6.548298E-02
-1.128434E-01
9.098869E-01
8.843283E-01
-1.976566E-01
8.361457E-01
7.419213E-01
6.898104E-01
8.394824E-01
6.008769E-01
5.007269E-01
4.049949E-01
3.027612E-01
1.902194E-01
6.896217E-02
-2.259521E-02
-9.115718E-02
-1.547200E-01
-1.910423E-01
-2.395936E-01
2.880130E-02
2.354470E-01
1.284453E-01
3.452346E-01
4.635150E-01
5.314616E-01
6.778243E-01
8.080085E-01
7.337921E-01
8.681169E-01
-7.659843E-02
-1.744054E-01
9.028981E-01
9.233849E-01
-2.445014E-01
8.361457E-01
8.681169E-01
7.650728E-01
6.569942E-01
8.683363E-01
5.546658E-01
4.536596E-01
3.540992E-01
2.463480E-01
1.343538E-01
7.168685E-02
-6.548298E-02
-1.128434E-01
-1.976566E-01
-2.395936E-01
-2.864841E-01
6.558255E-02
-3.363623E-02
1.734099E-01
2.829957E-01
4.059857E-01
5.453673E-01
6.546257E-01
8.111258E-01
7.405207E-01
8.683363E-01
-1.430262E-01
-1.934727E-01
9.098869E-01
9.233849E-01
-3.005401E-01
8.681169E-01
8.080085E-01
8.843283E-01
7.337921E-01
6.778243E-01
8.915364E-01
5.314616E-01
4.635150E-01
3.452346E-01
2.354470E-01
1.284453E-01
2.880130E-02
-7.659843E-02
-1.744054E-01
-2.445014E-01
-2.864841E-01
-3.294587E-01
3.706120E-02
-6.564660E-02
1.666796E-01
2.401140E-01
4.163240E-01
6.014902E-01
4.877590E-01
6.965924E-01
7.749188E-01
8.394824E-01
8.915364E-01
-1.676270E-01
-2.495096E-01
-3.317191E-01
8.683363E-01
8.111258E-01
9.028981E-01
7.405207E-01
6.546257E-01
9.098869E-01
5.453673E-01
4.059857E-01
2.829957E-01
1.734099E-01
6.558255E-02
-3.363623E-02
-1.430262E-01
-1.934727E-01
-3.005401E-01
-3.294587E-01
-3.911817E-01
9.319366E-02
-3.173042E-02
-1.332096E-01
2.426501E-01
3.734480E-01
5.888419E-01
4.839596E-01
6.822427E-01
7.739268E-01
8.162844E-01
-2.328872E-01
-3.084660E-01
-3.985969E-01
8.915364E-01
8.394824E-01
7.749188E-01
9.098869E-01
6.965924E-01
6.014902E-01
9.233849E-01
4.877590E-01
4.163240E-01
2.401140E-01
1.666796E-01
3.706120E-02
-6.564660E-02
-1.676270E-01
-2.495096E-01
-3.317191E-01
-3.911817E-01
-4.291409E-01
9.146163E-02
-8.776344E-02
-1.555038E-01
3.034069E-01
1.674837E-01
4.190026E-01
5.289197E-01
6.276278E-01
7.251790E-01
-2.767259E-01
-3.567153E-01
-4.381477E-01
8.162844E-01
7.739268E-01
9.233849E-01
6.822427E-01
5.888419E-01
4.839596E-01
3.734480E-01
2.426501E-01
9.319366E-02
-3.173042E-02
-1.332096E-01
-2.328872E-01
-3.084660E-01
-3.985969E-01
-4.291409E-01
-4.898000E-01
3.543436E-02
-9.698567E-02
-2.337599E-01
2.769123E-01
1.537310E-01
3.922624E-01
5.200754E-01
5.847418E-01
-3.415975E-01
-4.195191E-01
-4.958705E-01
7.251790E-01
6.276278E-01
5.289197E-01
4.190026E-01
3.034069E-01
1.674837E-01
9.146163E-02
-8.776344E-02
-1.555038E-01
-2.767259E-01
-3.567153E-01
-4.381477E-01
-4.898000E-01
-5.362993E-01
7.763684E-02
-4.084745E-02
-1.782669E-01
-2.473008E-01
2.024027E-01
3.202132E-01
4.483752E-01
-4.022534E-01
-4.539857E-01
-5.483562E-01
5.847418E-01
5.200754E-01
3.922624E-01
2.769123E-01
1.537310E-01
3.543436E-02
-9.698567E-02
-2.337599E-01
-3.415975E-01
-4.195191E-01
-4.958705E-01
-5.362993E-01
-5.934457E-01
4.257641E-02
-7.715670E-02
-1.998809E-01
-3.079509E-01
1.870511E-01
2.641716E-01
-4.218323E-01
-5.250999E-01
-5.994321E-01
4.483752E-01
3.202132E-01
2.024027E-01
7.763684E-02
-4.084745E-02
-1.782669E-01
-2.473008E-01
-4.022534E-01
-4.539857E-01
-5.483562E-01
-5.934457E-01
-6.419294E-01
1.033190E-01
-3.593531E-02
-1.549089E-01
-2.755273E-01
-3.788605E-01
-4.968557E-01
-5.483911E-01
-6.554803E-01
2.641716E-01
1.870511E-01
4.257641E-02
-7.715670E-02
-1.998809E-01
-3.079509E-01
-4.218323E-01
-5.250999E-01
-5.994321E-01
-6.419294E-01
-6.833264E-01
-9.659985E-02
-1.744314E-01
-3.135712E-01
-4.194584E-01
-5.230426E-01
-6.044336E-01
-6.824397E-01
1.033190E-01
-3.593531E-02
-1.549089E-01
-2.755273E-01
-3.788605E-01
-4.968557E-01
-5.483911E-01
-6.554803E-01
-6.833264E-01
-7.364755E-01
-2.574474E-01
-3.865928E-01
-4.886172E-01
-5.867267E-01
-6.591778E-01
-7.397883E-01
-9.659985E-02
-1.744314E-01
-3.135712E-01
-4.194584E-01
-5.230426E-01
-6.044336E-01
-6.824397E-01
-7.364755E-01
-7.659779E-01
-4.426455E-01
-5.093396E-01
-6.219646E-01
-6.978883E-01
-7.665677E-01
-2.574474E-01
-3.865928E-01
-4.886172E-01
-5.867267E-01
-6.591778E-01
-7.397883E-01
-7.659779E-01
-8.088901E-01
-5.790030E-01
-6.783821E-01
-7.479296E-01
-8.086011E-01
-4.426455E-01
-5.093396E-01
-6.219646E-01
-6.978883E-01
-7.665677E-01
-8.088901E-01
-8.391397E-01
-7.212937E-01
-7.667007E-01
-8.356780E-01
-5.790030E-01
-6.783821E-01
-7.479296E-01
-8.086011E-01
-8.391397E-01
-8.700877E-01
-8.124157E-01
-8.669151E-01
-7.212937E-01
-7.667007E-01
-8.356780E-01
-8.700877E-01
-8.934131E-01
-8.901771E-01
-8.124157E-01
-8.669151E-01
-8.934131E-01
-9.073998E-01
-8.901771E-01
-9.073998E-01
-9.223064E-01
-9.223064E-01
