# vtk DataFile Version 2.0
Grille
ASCII
DATASET POLYDATA
POINTS 481 float
0.000000E+00 8.750000E-01 -6.784832E-01
6.250000E-02 8.750000E-01 -6.641007E-01
1.250000E-01 8.750000E-01 -6.267629E-01
1.250000E-01 9.375000E-01 -6.641007E-01
1.250000E-01 1.000000E+00 -6.784832E-01
6.250000E-02 1.000000E+00 -7.189210E-01
0.000000E+00 1.000000E+00 -7.348258E-01
0.000000E+00 9.375000E-01 -7.189210E-01
3.750000E-02 9.125000E-01 -6.996960E-01
8.125000E-02 9.187500E-01 -6.859597E-01
8.750000E-02 9.625000E-01 -6.996960E-01
4.375000E-02 9.562500E-01 -7.190701E-01
1.875000E-01 8.750000E-01 -5.629724E-01
2.500000E-01 8.750000E-01 -4.795229E-01
2.500000E-01 9.375000E-01 -5.081528E-01
2.500000E-01 1.000000E+00 -5.190752E-01
1.875000E-01 1.000000E+00 -6.092798E-01
1.625000E-01 9.125000E-01 -6.146721E-01
2.062500E-01 9.187500E-01 -5.650435E-01
2.125000E-01 9.625000E-01 -5.707493E-01
1.687500E-01 9.562500E-01 -6.260815E-01
0.000000E+00 7.500000E-01 -5.190752E-01
6.250000E-02 7.500000E-01 -5.081528E-01
1.250000E-01 7.500000E-01 -4.795229E-01
1.250000E-01 8.125000E-01 -5.629724E-01
0.000000E+00 8.125000E-01 -6.092798E-01
3.750000E-02 7.875000E-01 -5.707493E-01
8.125000E-02 7.937500E-01 -5.650435E-01
8.750000E-02 8.375000E-01 -6.146721E-01
4.375000E-02 8.312500E-01 -6.260815E-01
1.875000E-01 7.500000E-01 -4.308875E-01
2.500000E-01 7.500000E-01 -3.668370E-01
2.500000E-01 8.125000E-01 -4.308875E-01
1.625000E-01 7.875000E-01 -5.015098E-01
2.062500E-01 7.937500E-01 -4.654155E-01
2.125000E-01 8.375000E-01 -5.015098E-01
1.687500E-01 8.312500E-01 -5.451453E-01
3.125000E-01 8.750000E-01 -3.760811E-01
3.750000E-01 8.750000E-01 -2.592292E-01
3.750000E-01 9.375000E-01 -2.748126E-01
3.750000E-01 1.000000E+00 -2.806219E-01
3.125000E-01 1.000000E+00 -4.069082E-01
2.875000E-01 9.125000E-01 -4.360314E-01
3.312500E-01 9.187500E-01 -3.580733E-01
3.375000E-01 9.625000E-01 -3.549038E-01
2.937500E-01 9.562500E-01 -4.377939E-01
4.375000E-01 8.750000E-01 -1.318826E-01
5.000000E-01 8.750000E-01 5.842824E-04
5.000000E-01 9.375000E-01 4.142155E-04
5.000000E-01 1.000000E+00 6.004897E-04
4.375000E-01 1.000000E+00 -1.425496E-01
4.125000E-01 9.125000E-01 -1.909654E-01
4.562500E-01 9.187500E-01 -9.654241E-02
4.625000E-01 9.625000E-01 -8.498358E-02
4.187500E-01 9.562500E-01 -1.828186E-01
3.125000E-01 7.500000E-01 -2.879367E-01
3.750000E-01 7.500000E-01 -1.982276E-01
3.750000E-01 8.125000E-01 -2.331378E-01
2.875000E-01 7.875000E-01 -3.558335E-01
3.312500E-01 7.937500E-01 -2.948565E-01
3.375000E-01 8.375000E-01 -3.119330E-01
2.937500E-01 8.312500E-01 -3.811426E-01
4.375000E-01 7.500000E-01 -1.010799E-01
5.000000E-01 7.500000E-01 6.276148E-04
5.000000E-01 8.125000E-01 1.662857E-04
4.125000E-01 7.875000E-01 -1.559177E-01
4.562500E-01 7.937500E-01 -7.934403E-02
4.625000E-01 8.375000E-01 -7.480886E-02
4.187500E-01 8.312500E-01 -1.590543E-01
0.000000E+00 6.250000E-01 -2.806219E-01
6.250000E-02 6.250000E-01 -2.748126E-01
1.250000E-01 6.250000E-01 -2.592292E-01
1.250000E-01 6.875000E-01 -3.760811E-01
0.000000E+00 6.875000E-01 -4.069082E-01
3.750000E-02 6.625000E-01 -3.549038E-01
8.125000E-02 6.687500E-01 -3.580733E-01
8.750000E-02 7.125000E-01 -4.360314E-01
4.375000E-02 7.062500E-01 -4.377939E-01
1.875000E-01 6.250000E-01 -2.331378E-01
2.500000E-01 6.250000E-01 -1.982276E-01
2.500000E-01 6.875000E-01 -2.879367E-01
1.625000E-01 6.625000E-01 -3.119330E-01
2.062500E-01 6.687500E-01 -2.948565E-01
2.125000E-01 7.125000E-01 -3.558335E-01
1.687500E-01 7.062500E-01 -3.811426E-01
0.000000E+00 5.000000E-01 6.004897E-04
6.250000E-02 5.000000E-01 4.142155E-04
1.250000E-01 5.000000E-01 5.842824E-04
1.250000E-01 5.625000E-01 -1.318826E-01
0.000000E+00 5.625000E-01 -1.425496E-01
3.750000E-02 5.375000E-01 -8.498358E-02
8.125000E-02 5.437500E-01 -9.654241E-02
8.750000E-02 5.875000E-01 -1.909654E-01
4.375000E-02 5.812500E-01 -1.828186E-01
1.875000E-01 5.000000E-01 1.662857E-04
2.500000E-01 5.000000E-01 6.276148E-04
2.500000E-01 5.625000E-01 -1.010799E-01
1.625000E-01 5.375000E-01 -7.480886E-02
2.062500E-01 5.437500E-01 -7.934403E-02
2.125000E-01 5.875000E-01 -1.559177E-01
1.687500E-01 5.812500E-01 -1.590543E-01
3.125000E-01 6.250000E-01 -1.558746E-01
3.750000E-01 6.250000E-01 -1.069619E-01
3.750000E-01 6.875000E-01 -1.558746E-01
2.875000E-01 6.625000E-01 -2.213790E-01
3.312500E-01 6.687500E-01 -1.866621E-01
3.375000E-01 7.125000E-01 -2.213790E-01
2.937500E-01 7.062500E-01 -2.663777E-01
4.375000E-01 6.250000E-01 -5.480119E-02
5.000000E-01 6.250000E-01 6.636257E-04
5.000000E-01 6.875000E-01 -9.589977E-06
4.125000E-01 6.625000E-01 -9.704225E-02
4.562500E-01 6.687500E-01 -4.997399E-02
4.625000E-01 7.125000E-01 -5.314913E-02
4.187500E-01 7.062500E-01 -1.109832E-01
3.125000E-01 5.000000E-01 -9.589977E-06
3.750000E-01 5.000000E-01 6.636257E-04
3.750000E-01 5.625000E-01 -5.480119E-02
2.875000E-01 5.375000E-01 -5.314913E-02
3.312500E-01 5.437500E-01 -4.997399E-02
3.375000E-01 5.875000E-01 -9.704225E-02
2.937500E-01 5.812500E-01 -1.109832E-01
4.375000E-01 5.000000E-01 -1.013928E-04
5.000000E-01 5.000000E-01 6.773623E-04
5.000000E-01 5.625000E-01 -1.013928E-04
4.125000E-01 5.375000E-01 -2.331351E-02
4.562500E-01 5.437500E-01 -1.291488E-02
4.625000E-01 5.875000E-01 -2.331351E-02
4.187500E-01 5.812500E-01 -4.593287E-02
5.625000E-01 8.750000E-01 1.324498E-01
6.250000E-01 8.750000E-01 2.603653E-01
6.250000E-01 9.375000E-01 2.756311E-01
6.250000E-01 1.000000E+00 2.817834E-01
5.625000E-01 1.000000E+00 1.435618E-01
5.375000E-01 9.125000E-01 8.322603E-02
5.812500E-01 9.187500E-01 1.797397E-01
5.875000E-01 9.625000E-01 1.979266E-01
5.437500E-01 9.562500E-01 1.000400E-01
6.875000E-01 8.750000E-01 3.766739E-01
7.500000E-01 8.750000E-01 4.805625E-01
7.500000E-01 9.375000E-01 5.089346E-01
7.500000E-01 1.000000E+00 5.201143E-01
6.875000E-01 1.000000E+00 4.078682E-01
6.625000E-01 9.125000E-01 3.448010E-01
7.062500E-01 9.187500E-01 4.287106E-01
7.125000E-01 9.625000E-01 4.507546E-01
6.687500E-01 9.562500E-01 3.677204E-01
5.625000E-01 7.500000E-01 1.012314E-01
6.250000E-01 7.500000E-01 1.994529E-01
6.250000E-01 8.125000E-01 2.335059E-01
5.375000E-01 7.875000E-01 6.779849E-02
5.812500E-01 7.937500E-01 1.483103E-01
5.875000E-01 8.375000E-01 1.737632E-01
5.437500E-01 8.312500E-01 8.730784E-02
6.875000E-01 7.500000E-01 2.881971E-01
7.500000E-01 7.500000E-01 3.679806E-01
7.500000E-01 8.125000E-01 4.313576E-01
6.625000E-01 7.875000E-01 2.812558E-01
7.062500E-01 7.937500E-01 3.534482E-01
7.125000E-01 8.375000E-01 3.959401E-01
6.687500E-01 8.312500E-01 3.204376E-01
8.125000E-01 8.750000E-01 5.636052E-01
8.750000E-01 8.750000E-01 6.276488E-01
8.750000E-01 9.375000E-01 6.647884E-01
8.750000E-01 1.000000E+00 6.792830E-01
8.125000E-01 1.000000E+00 6.101194E-01
7.875000E-01 9.125000E-01 5.539316E-01
8.312500E-01 9.187500E-01 6.124572E-01
8.375000E-01 9.625000E-01 6.349947E-01
7.937500E-01 9.562500E-01 5.794621E-01
9.375000E-01 8.750000E-01 6.647884E-01
1.000000E+00 8.750000E-01 6.792830E-01
1.000000E+00 9.375000E-01 7.194623E-01
1.000000E+00 1.000000E+00 7.348024E-01
9.375000E-01 1.000000E+00 7.194623E-01
9.125000E-01 9.125000E-01 6.787662E-01
9.562500E-01 9.187500E-01 7.029925E-01
9.625000E-01 9.625000E-01 7.225280E-01
9.187500E-01 9.562500E-01 7.029925E-01
8.125000E-01 7.500000E-01 4.313576E-01
8.750000E-01 7.500000E-01 4.805625E-01
8.750000E-01 8.125000E-01 5.636052E-01
7.875000E-01 7.875000E-01 4.519593E-01
8.312500E-01 7.937500E-01 5.048428E-01
8.375000E-01 8.375000E-01 5.578976E-01
7.937500E-01 8.312500E-01 5.048428E-01
9.375000E-01 7.500000E-01 5.089346E-01
1.000000E+00 7.500000E-01 5.201143E-01
1.000000E+00 8.125000E-01 6.101194E-01
9.125000E-01 7.875000E-01 5.539316E-01
9.562500E-01 7.937500E-01 5.794621E-01
9.625000E-01 8.375000E-01 6.349947E-01
9.187500E-01 8.312500E-01 6.124572E-01
5.625000E-01 6.250000E-01 5.468888E-02
6.250000E-01 6.250000E-01 1.082612E-01
6.250000E-01 6.875000E-01 1.559267E-01
5.375000E-01 6.625000E-01 4.214085E-02
5.812500E-01 6.687500E-01 9.439338E-02
5.875000E-01 7.125000E-01 1.232406E-01
5.437500E-01 7.062500E-01 6.137713E-02
6.875000E-01 6.250000E-01 1.559267E-01
7.500000E-01 6.250000E-01 1.994529E-01
7.500000E-01 6.875000E-01 2.881971E-01
6.625000E-01 6.625000E-01 1.749799E-01
7.062500E-01 6.687500E-01 2.244622E-01
7.125000E-01 7.125000E-01 2.809374E-01
6.687500E-01 7.062500E-01 2.244622E-01
5.625000E-01 5.000000E-01 -1.013928E-04
6.250000E-01 5.000000E-01 6.636257E-04
6.250000E-01 5.625000E-01 5.468888E-02
5.375000E-01 5.375000E-01 1.014832E-02
5.812500E-01 5.437500E-01 2.618611E-02
5.875000E-01 5.875000E-01 5.403913E-02
5.437500E-01 5.812500E-01 2.618611E-02
6.875000E-01 5.000000E-01 -9.589977E-06
7.500000E-01 5.000000E-01 6.276148E-04
7.500000E-01 5.625000E-01 1.012314E-01
6.625000E-01 5.375000E-01 4.214085E-02
7.062500E-01 5.437500E-01 6.137713E-02
7.125000E-01 5.875000E-01 1.232406E-01
6.687500E-01 5.812500E-01 9.439338E-02
8.125000E-01 6.250000E-01 2.335059E-01
8.750000E-01 6.250000E-01 2.603653E-01
8.750000E-01 6.875000E-01 3.766739E-01
7.875000E-01 6.625000E-01 2.812558E-01
8.312500E-01 6.687500E-01 3.204376E-01
8.375000E-01 7.125000E-01 3.959401E-01
7.937500E-01 7.062500E-01 3.534482E-01
9.375000E-01 6.250000E-01 2.756311E-01
1.000000E+00 6.250000E-01 2.817834E-01
1.000000E+00 6.875000E-01 4.078682E-01
9.125000E-01 6.625000E-01 3.448010E-01
9.562500E-01 6.687500E-01 3.677204E-01
9.625000E-01 7.125000E-01 4.507546E-01
9.187500E-01 7.062500E-01 4.287106E-01
8.125000E-01 5.000000E-01 1.662857E-04
8.750000E-01 5.000000E-01 5.842824E-04
8.750000E-01 5.625000E-01 1.324498E-01
7.875000E-01 5.375000E-01 6.779849E-02
8.312500E-01 5.437500E-01 8.730784E-02
8.375000E-01 5.875000E-01 1.737632E-01
7.937500E-01 5.812500E-01 1.483103E-01
9.375000E-01 5.000000E-01 4.142155E-04
1.000000E+00 5.000000E-01 6.004897E-04
1.000000E+00 5.625000E-01 1.435618E-01
9.125000E-01 5.375000E-01 8.322603E-02
9.562500E-01 5.437500E-01 1.000400E-01
9.625000E-01 5.875000E-01 1.979266E-01
9.187500E-01 5.812500E-01 1.797397E-01
0.000000E+00 3.750000E-01 2.817834E-01
6.250000E-02 3.750000E-01 2.756311E-01
[...]
CELL_DATA 896
SCALARS sol float 1
LOOKUP_TABLE default
-6.807600E-01
-6.832521E-01
-6.990334E-01
-6.562218E-01
-7.015753E-01
-6.589411E-01
-7.125624E-01
-6.379482E-01
-6.349514E-01
-7.015753E-01
-6.589411E-01
-6.351785E-01
-7.242723E-01
-6.020369E-01
-6.019324E-01
-7.125624E-01
-6.832521E-01
-6.351785E-01
-6.014691E-01
-7.242723E-01
-5.872914E-01
-5.663681E-01
-5.808960E-01
-6.990334E-01
-6.807600E-01
-6.014691E-01
-6.349514E-01
-5.782935E-01
-5.479819E-01
-5.326591E-01
-5.358463E-01
-6.562218E-01
-5.808960E-01
-5.782935E-01
-6.019324E-01
-5.365425E-01
-5.175731E-01
-4.883406E-01
-5.146684E-01
-6.379482E-01
-5.358463E-01
-5.365425E-01
-5.872914E-01
-5.040235E-01
-4.745690E-01
-4.545924E-01
-4.606593E-01
-4.706401E-01
-6.020369E-01
-5.175731E-01
-5.146684E-01
-5.040235E-01
-5.479819E-01
-4.659376E-01
-4.305451E-01
-3.998686E-01
-4.106328E-01
-4.305177E-01
-5.663681E-01
-4.745690E-01
-4.706401E-01
-4.659376E-01
-5.326591E-01
-4.210467E-01
-3.900619E-01
-4.122489E-01
-3.835903E-01
-3.474780E-01
-3.892879E-01
-4.305451E-01
-4.606593E-01
-4.305177E-01
-4.210467E-01
-4.883406E-01
-3.845194E-01
-3.311279E-01
-3.563855E-01
-3.292632E-01
-3.034461E-01
-3.439442E-01
-3.900619E-01
-4.122489E-01
-4.106328E-01
-3.892879E-01
-3.845194E-01
-4.545924E-01
-3.368691E-01
-2.973717E-01
-3.157478E-01
-3.293107E-01
-2.460844E-01
-3.128756E-01
-3.311279E-01
-3.563855E-01
-3.835903E-01
-3.439442E-01
-3.368691E-01
-3.998686E-01
-3.070504E-01
-2.416691E-01
-2.681000E-01
-2.799757E-01
-2.019967E-01
-2.161989E-01
-2.603402E-01
-2.973717E-01
-3.157478E-01
-3.293107E-01
-3.292632E-01
-3.128756E-01
-3.070504E-01
-3.474780E-01
-2.585644E-01
-1.940258E-01
-2.171404E-01
-2.420739E-01
-1.367839E-01
-1.567755E-01
-2.358477E-01
-2.416691E-01
-2.681000E-01
-2.799757E-01
-3.034461E-01
-2.603402E-01
-2.585644E-01
-2.248063E-01
-1.833887E-01
-1.397968E-01
-1.827032E-01
-1.957610E-01
-1.214482E-01
-7.564422E-02
-1.918271E-01
-1.940258E-01
-2.161989E-01
-2.171404E-01
-2.420739E-01
-2.460844E-01
-2.358477E-01
-2.248063E-01
-1.879719E-01
-1.219153E-01
-7.594692E-02
-1.314387E-01
-1.517417E-01
-6.037059E-02
-2.798962E-02
-1.550285E-01
-1.397968E-01
-1.833887E-01
-1.567755E-01
-1.827032E-01
-1.957610E-01
-2.019967E-01
-1.918271E-01
-1.879719E-01
-1.498329E-01
-1.044024E-01
-6.870240E-02
-3.184797E-02
-1.121139E-01
-1.367635E-01
3.368489E-02
-1.213000E-01
-7.594692E-02
-1.219153E-01
-1.214482E-01
-1.314387E-01
-1.517417E-01
-1.367839E-01
-1.550285E-01
-1.498329E-01
-1.199596E-01
-5.132887E-02
-2.468610E-02
2.807484E-02
-5.993209E-02
-8.840406E-02
8.140077E-02
6.122674E-02
-8.599981E-02
-3.184797E-02
-6.870240E-02
-1.044024E-01
-6.037059E-02
-1.121139E-01
-1.367635E-01
-7.564422E-02
-1.213000E-01
-1.199596E-01
-8.626846E-02
-2.618338E-02
2.935280E-02
7.208670E-02
-5.120046E-02
-7.136877E-02
1.471762E-01
1.210019E-01
-6.727248E-02
2.807484E-02
-2.468610E-02
-5.132887E-02
-2.798962E-02
-5.993209E-02
-8.840406E-02
-8.599981E-02
-8.626846E-02
-6.923200E-02
2.286413E-02
7.344730E-02
5.175754E-02
1.318052E-01
-1.751037E-02
-3.437757E-02
1.592354E-01
2.077573E-01
-3.470385E-02
7.208670E-02
6.122674E-02
2.935280E-02
-2.618338E-02
3.368489E-02
-5.120046E-02
-7.136877E-02
-6.727248E-02
-6.923200E-02
-4.134919E-02
5.655250E-02
1.311736E-01
1.011389E-01
1.908516E-01
2.066505E-02
-1.643999E-02
2.177658E-01
2.517804E-01
-2.581702E-02
1.318052E-01
7.344730E-02
1.210019E-01
5.175754E-02
2.286413E-02
8.140077E-02
-1.751037E-02
-3.437757E-02
-3.470385E-02
-4.134919E-02
-2.738709E-02
5.441205E-02
1.057800E-01
1.364604E-01
1.888594E-01
2.385787E-01
3.450280E-02
1.426496E-02
3.083783E-01
-7.583757E-03
1.908516E-01
1.311736E-01
1.592354E-01
1.011389E-01
5.655250E-02
1.471762E-01
2.066505E-02
-1.643999E-02
-2.581702E-02
-2.738709E-02
-1.210993E-02
9.528305E-02
1.496648E-01
1.851931E-01
2.225448E-01
2.935991E-01
6.597045E-02
3.249779E-02
3.524573E-01
3.293841E-01
8.916113E-03
2.385787E-01
1.888594E-01
1.364604E-01
2.177658E-01
1.057800E-01
5.441205E-02
2.077573E-01
3.450280E-02
1.426496E-02
-7.583757E-03
-1.210993E-02
-4.112971E-03
9.300371E-02
1.413083E-01
1.937563E-01
2.714363E-01
3.272801E-01
6.374104E-02
2.717954E-02
4.087810E-01
3.804107E-01
1.207768E-02
2.935991E-01
2.225448E-01
1.851931E-01
2.517804E-01
1.496648E-01
9.528305E-02
6.597045E-02
3.249779E-02
8.916113E-03
-4.112971E-03
3.574764E-03
1.245202E-01
1.595401E-01
2.380715E-01
3.191589E-01
2.783998E-01
3.833952E-01
8.578114E-02
4.497137E-02
4.157285E-01
4.595790E-01
2.084018E-02
3.272801E-01
3.293841E-01
2.714363E-01
1.937563E-01
3.083783E-01
1.413083E-01
9.300371E-02
6.374104E-02
2.717954E-02
1.207768E-02
3.574764E-03
3.574764E-03
1.195271E-01
1.932806E-01
2.563019E-01
3.643505E-01
3.183806E-01
4.286490E-01
7.232972E-02
3.547045E-02
4.627999E-01
4.932678E-01
1.207768E-02
3.833952E-01
3.191589E-01
3.804107E-01
2.783998E-01
2.380715E-01
3.524573E-01
1.595401E-01
1.245202E-01
8.578114E-02
4.497137E-02
2.084018E-02
3.574764E-03
-4.112971E-03
1.463892E-01
2.373707E-01
1.851229E-01
3.076337E-01
3.566087E-01
4.177255E-01
4.727359E-01
7.232972E-02
4.497137E-02
5.361703E-01
8.916113E-03
4.286490E-01
3.643505E-01
4.157285E-01
3.183806E-01
2.563019E-01
4.087810E-01
1.932806E-01
1.195271E-01
7.232972E-02
3.547045E-02
1.207768E-02
-4.112971E-03
-1.210993E-02
1.463892E-01
2.645323E-01
2.079681E-01
3.365420E-01
3.935820E-01
4.359534E-01
5.144762E-01
8.578114E-02
2.717954E-02
5.698986E-01
5.474428E-01
-7.583757E-03
4.727359E-01
4.177255E-01
3.566087E-01
4.627999E-01
3.076337E-01
2.373707E-01
4.595790E-01
1.851229E-01
1.463892E-01
7.232972E-02
4.497137E-02
8.916113E-03
-1.210993E-02
-2.738709E-02
1.195271E-01
1.851229E-01
2.432873E-01
3.123717E-01
3.842622E-01
4.722543E-01
5.326998E-01
6.374104E-02
3.249779E-02
6.081920E-01
5.819503E-01
-2.581702E-02
5.144762E-01
4.359534E-01
3.935820E-01
4.932678E-01
3.365420E-01
2.645323E-01
2.079681E-01
1.463892E-01
8.578114E-02
2.717954E-02
-7.583757E-03
-2.738709E-02
-4.134919E-02
1.245202E-01
1.932806E-01
2.645323E-01
3.123717E-01
4.170992E-01
5.163369E-01
4.627199E-01
5.766647E-01
6.597045E-02
1.426496E-02
6.089713E-01
6.414657E-01
-3.470385E-02
5.326998E-01
5.474428E-01
4.722543E-01
3.842622E-01
5.361703E-01
3.123717E-01
2.432873E-01
1.851229E-01
1.195271E-01
6.374104E-02
3.249779E-02
-2.581702E-02
-4.134919E-02
-6.923200E-02
9.300371E-02
1.595401E-01
2.373707E-01
3.365420E-01
4.170992E-01
5.421152E-01
4.872150E-01
6.012371E-01
3.450280E-02
-1.643999E-02
6.374134E-01
6.596887E-01
-6.727248E-02
5.766647E-01
5.163369E-01
5.819503E-01
4.627199E-01
4.170992E-01
5.698986E-01
3.123717E-01
2.645323E-01
1.932806E-01
1.245202E-01
6.597045E-02
1.426496E-02
-3.470385E-02
-6.923200E-02
-8.626846E-02
9.528305E-02
1.413083E-01
2.563019E-01
3.842622E-01
3.076337E-01
4.627199E-01
5.225278E-01
5.830506E-01
6.349648E-01
2.066505E-02
-3.437757E-02
6.823546E-01
-8.599981E-02
6.012371E-01
5.421152E-01
6.089713E-01
4.872150E-01
4.170992E-01
6.081920E-01
3.365420E-01
2.373707E-01
1.595401E-01
9.300371E-02
3.450280E-02
-1.643999E-02
-6.727248E-02
-8.626846E-02
-1.199596E-01
5.441205E-02
1.496648E-01
2.380715E-01
3.935820E-01
3.183806E-01
4.722543E-01
5.421152E-01
5.830506E-01
6.570678E-01
-1.751037E-02
-7.136877E-02
7.005793E-01
6.821823E-01
-1.213000E-01
6.349648E-01
5.830506E-01
5.225278E-01
6.374134E-01
4.627199E-01
3.842622E-01
6.414657E-01
3.076337E-01
2.563019E-01
1.413083E-01
9.528305E-02
2.066505E-02
-3.437757E-02
-8.599981E-02
-1.199596E-01
-1.498329E-01
5.655250E-02
1.937563E-01
1.057800E-01
2.783998E-01
3.566087E-01
4.359534E-01
5.163369E-01
6.012371E-01
6.570678E-01
-5.120046E-02
-8.840406E-02
7.149943E-01
6.949170E-01
-1.550285E-01
6.570678E-01
5.830506E-01
5.421152E-01
6.596887E-01
4.722543E-01
3.935820E-01
3.183806E-01
2.380715E-01
1.496648E-01
5.441205E-02
-1.751037E-02
-7.136877E-02
-1.213000E-01
-1.498329E-01
-1.879719E-01
2.286413E-02
1.851931E-01
1.011389E-01
2.714363E-01
3.643505E-01
4.177255E-01
5.326998E-01
6.349648E-01
5.766647E-01
6.821823E-01
-5.993209E-02
-1.367635E-01
7.095043E-01
7.255976E-01
-1.918271E-01
6.570678E-01
6.821823E-01
6.012371E-01
5.163369E-01
6.823546E-01
4.359534E-01
3.566087E-01
2.783998E-01
1.937563E-01
1.057800E-01
5.655250E-02
-5.120046E-02
-8.840406E-02
-1.550285E-01
-1.879719E-01
-2.248063E-01
5.175754E-02
-2.618338E-02
1.364604E-01
2.225448E-01
3.191589E-01
4.286490E-01
5.144762E-01
6.374134E-01
5.819503E-01
6.823546E-01
-1.121139E-01
-1.517417E-01
7.149943E-01
7.255976E-01
-2.358477E-01
6.821823E-01
6.349648E-01
6.949170E-01
5.766647E-01
5.326998E-01
7.005793E-01
4.177255E-01
3.643505E-01
2.714363E-01
1.851931E-01
1.011389E-01
2.286413E-02
-5.993209E-02
-1.367635E-01
-1.918271E-01
-2.248063E-01
-2.585644E-01
2.935280E-02
-5.132887E-02
1.311736E-01
1.888594E-01
3.272801E-01
4.727359E-01
3.833952E-01
5.474428E-01
6.089713E-01
6.596887E-01
7.005793E-01
-1.314387E-01
-1.957610E-01
-2.603402E-01
6.823546E-01
6.374134E-01
7.095043E-01
5.819503E-01
5.144762E-01
7.149943E-01
4.286490E-01
3.191589E-01
2.225448E-01
1.364604E-01
5.175754E-02
-2.618338E-02
-1.121139E-01
-1.517417E-01
-2.358477E-01
-2.585644E-01
-3.070504E-01
7.344730E-02
-2.468610E-02
-1.044024E-01
1.908516E-01
2.935991E-01
4.627999E-01
3.804107E-01
5.361703E-01
6.081920E-01
6.414657E-01
-1.827032E-01
-2.420739E-01
-3.128756E-01
7.005793E-01
6.596887E-01
6.089713E-01
7.149943E-01
5.474428E-01
4.727359E-01
7.255976E-01
3.833952E-01
3.272801E-01
1.888594E-01
1.311736E-01
2.935280E-02
-5.132887E-02
-1.314387E-01
-1.957610E-01
-2.603402E-01
-3.070504E-01
-3.368691E-01
7.208670E-02
-6.870240E-02
-1.219153E-01
2.385787E-01
1.318052E-01
3.293841E-01
4.157285E-01
4.932678E-01
5.698986E-01
-2.171404E-01
-2.799757E-01
-3.439442E-01
6.414657E-01
6.081920E-01
7.255976E-01
5.361703E-01
4.627999E-01
3.804107E-01
2.935991E-01
1.908516E-01
7.344730E-02
-2.468610E-02
-1.044024E-01
-1.827032E-01
-2.420739E-01
-3.128756E-01
-3.368691E-01
-3.845194E-01
2.807484E-02
-7.594692E-02
-1.833887E-01
2.177658E-01
1.210019E-01
3.083783E-01
4.087810E-01
4.595790E-01
-2.681000E-01
-3.293107E-01
-3.892879E-01
5.698986E-01
4.932678E-01
4.157285E-01
3.293841E-01
2.385787E-01
1.318052E-01
7.208670E-02
-6.870240E-02
-1.219153E-01
-2.171404E-01
-2.799757E-01
-3.439442E-01
-3.845194E-01
-4.210467E-01
6.122674E-02
-3.184797E-02
-1.397968E-01
-1.940258E-01
1.592354E-01
2.517804E-01
3.524573E-01
-3.157478E-01
-3.563855E-01
-4.305177E-01
4.595790E-01
4.087810E-01
3.083783E-01
2.177658E-01
1.210019E-01
2.807484E-02
-7.594692E-02
-1.833887E-01
-2.681000E-01
-3.293107E-01
-3.892879E-01
-4.210467E-01
-4.659376E-01
3.368489E-02
-6.037059E-02
-1.567755E-01
-2.416691E-01
1.471762E-01
2.077573E-01
-3.311279E-01
-4.122489E-01
-4.706401E-01
3.524573E-01
2.517804E-01
1.592354E-01
6.122674E-02
-3.184797E-02
-1.397968E-01
-1.940258E-01
-3.157478E-01
-3.563855E-01
-4.305177E-01
-4.659376E-01
-5.040235E-01
8.140077E-02
-2.798962E-02
-1.214482E-01
-2.161989E-01
-2.973717E-01
-3.900619E-01
-4.305451E-01
-5.146684E-01
2.077573E-01
1.471762E-01
3.368489E-02
-6.037059E-02
-1.567755E-01
-2.416691E-01
-3.311279E-01
-4.122489E-01
-4.706401E-01
-5.040235E-01
-5.365425E-01
-7.564422E-02
-1.367839E-01
-2.460844E-01
-3.292632E-01
-4.106328E-01
-4.745690E-01
-5.358463E-01
8.140077E-02
-2.798962E-02
-1.214482E-01
-2.161989E-01
-2.973717E-01
-3.900619E-01
-4.305451E-01
-5.146684E-01
-5.365425E-01
-5.782935E-01
-2.019967E-01
-3.034461E-01
-3.835903E-01
-4.606593E-01
-5.175731E-01
-5.808960E-01
-7.564422E-02
-1.367839E-01
-2.460844E-01
-3.292632E-01
-4.106328E-01
-4.745690E-01
-5.358463E-01
-5.782935E-01
-6.014691E-01
-3.474780E-01
-3.998686E-01
-4.883406E-01
-5.479819E-01
-6.019324E-01
-2.019967E-01
-3.034461E-01
-3.835903E-01
-4.606593E-01
-5.175731E-01
-5.808960E-01
-6.014691E-01
-6.351785E-01
-4.545924E-01
-5.326591E-01
-5.872914E-01
-6.349514E-01
-3.474780E-01
-3.998686E-01
-4.883406E-01
-5.479819E-01
-6.019324E-01
-6.351785E-01
-6.589411E-01
-5.663681E-01
-6.020369E-01
-6.562218E-01
-4.545924E-01
-5.326591E-01
-5.872914E-01
-6.349514E-01
-6.589411E-01
-6.832521E-01
-6.379482E-01
-6.807600E-01
-5.663681E-01
-6.020369E-01
-6.562218E-01
-6.832521E-01
-7.015753E-01
-6.990334E-01
-6.379482E-01
-6.807600E-01
-7.015753E-01
-7.125624E-01
-6.990334E-01
-7.125624E-01
-7.242723E-01
-7.242723E-01
