# vtk DataFile Version 2.0
Grille
ASCII
DATASET POLYDATA
POINTS 481 float
0.000000E+00 8.750000E-01 -9.024528E-01
6.250000E-02 8.750000E-01 -8.833324E-01
1.250000E-01 8.750000E-01 -8.336919E-01
1.250000E-01 9.375000E-01 -8.833324E-01
1.250000E-01 1.000000E+00 -9.024528E-01
6.250000E-02 1.000000E+00 -9.562152E-01
0.000000E+00 1.000000E+00 -9.773597E-01
0.000000E+00 9.375000E-01 -9.562152E-01
3.750000E-02 9.125000E-01 -9.306558E-01
8.125000E-02 9.187500E-01 -9.123934E-01
8.750000E-02 9.625000E-01 -9.306558E-01
4.375000E-02 9.562500E-01 -9.564136E-01
1.875000E-01 8.750000E-01 -7.488836E-01
2.500000E-01 8.750000E-01 -6.379380E-01
2.500000E-01 9.375000E-01 -6.760012E-01
2.500000E-01 1.000000E+00 -6.905210E-01
1.875000E-01 1.000000E+00 -8.104486E-01
1.625000E-01 9.125000E-01 -8.176178E-01
2.062500E-01 9.187500E-01 -7.516366E-01
2.125000E-01 9.625000E-01 -7.592224E-01
1.687500E-01 9.562500E-01 -8.327866E-01
0.000000E+00 7.500000E-01 -6.905210E-01
6.250000E-02 7.500000E-01 -6.760012E-01
1.250000E-01 7.500000E-01 -6.379380E-01
1.250000E-01 8.125000E-01 -7.488836E-01
0.000000E+00 8.125000E-01 -8.104486E-01
3.750000E-02 7.875000E-01 -7.592224E-01
8.125000E-02 7.937500E-01 -7.516366E-01
8.750000E-02 8.375000E-01 -8.176178E-01
4.375000E-02 8.312500E-01 -8.327866E-01
1.875000E-01 7.500000E-01 -5.732778E-01
2.500000E-01 7.500000E-01 -4.881229E-01
2.500000E-01 8.125000E-01 -5.732778E-01
1.625000E-01 7.875000E-01 -6.671696E-01
2.062500E-01 7.937500E-01 -6.191820E-01
2.125000E-01 8.375000E-01 -6.671696E-01
1.687500E-01 8.312500E-01 -7.251832E-01
3.125000E-01 8.750000E-01 -5.004132E-01
3.750000E-01 8.750000E-01 -3.450594E-01
3.750000E-01 9.375000E-01 -3.657773E-01
3.750000E-01 1.000000E+00 -3.734991E-01
3.125000E-01 1.000000E+00 -5.413973E-01
2.875000E-01 9.125000E-01 -5.801167E-01
3.312500E-01 9.187500E-01 -4.764713E-01
3.375000E-01 9.625000E-01 -4.722575E-01
2.937500E-01 9.562500E-01 -5.824600E-01
4.375000E-01 8.750000E-01 -1.757531E-01
5.000000E-01 8.750000E-01 3.605493E-04
5.000000E-01 9.375000E-01 1.347101E-04
5.000000E-01 1.000000E+00 3.837895E-04
4.375000E-01 1.000000E+00 -1.899345E-01
4.125000E-01 9.125000E-01 -2.543035E-01
4.562500E-01 9.187500E-01 -1.287680E-01
4.625000E-01 9.625000E-01 -1.134005E-01
4.187500E-01 9.562500E-01 -2.434724E-01
3.125000E-01 7.500000E-01 -3.832255E-01
3.750000E-01 7.500000E-01 -2.639578E-01
3.750000E-01 8.125000E-01 -3.103709E-01
2.875000E-01 7.875000E-01 -4.734942E-01
3.312500E-01 7.937500E-01 -3.924250E-01
3.375000E-01 8.375000E-01 -4.151285E-01
2.937500E-01 8.312500E-01 -5.071429E-01
4.375000E-01 7.500000E-01 -1.348005E-01
5.000000E-01 7.500000E-01 4.186770E-04
5.000000E-01 8.125000E-01 -1.949008E-04
4.125000E-01 7.875000E-01 -2.077075E-01
4.562500E-01 7.937500E-01 -1.059027E-01
4.625000E-01 8.375000E-01 -9.987368E-02
4.187500E-01 8.312500E-01 -2.118782E-01
0.000000E+00 6.250000E-01 -3.734991E-01
6.250000E-02 6.250000E-01 -3.657773E-01
1.250000E-01 6.250000E-01 -3.450594E-01
1.250000E-01 6.875000E-01 -5.004132E-01
0.000000E+00 6.875000E-01 -5.413973E-01
3.750000E-02 6.625000E-01 -4.722575E-01
8.125000E-02 6.687500E-01 -4.764713E-01
8.750000E-02 7.125000E-01 -5.801167E-01
4.375000E-02 7.062500E-01 -5.824600E-01
1.875000E-01 6.250000E-01 -3.103709E-01
2.500000E-01 6.250000E-01 -2.639578E-01
2.500000E-01 6.875000E-01 -3.832255E-01
1.625000E-01 6.625000E-01 -4.151285E-01
2.062500E-01 6.687500E-01 -3.924250E-01
2.125000E-01 7.125000E-01 -4.734942E-01
1.687500E-01 7.062500E-01 -5.071429E-01
0.000000E+00 5.000000E-01 3.837895E-04
6.250000E-02 5.000000E-01 1.347101E-04
1.250000E-01 5.000000E-01 3.605493E-04
1.250000E-01 5.625000E-01 -1.757531E-01
0.000000E+00 5.625000E-01 -1.899345E-01
3.750000E-02 5.375000E-01 -1.134005E-01
8.125000E-02 5.437500E-01 -1.287680E-01
8.750000E-02 5.875000E-01 -2.543035E-01
4.375000E-02 5.812500E-01 -2.434724E-01
1.875000E-01 5.000000E-01 -1.949008E-04
2.500000E-01 5.000000E-01 4.186770E-04
2.500000E-01 5.625000E-01 -1.348005E-01
1.625000E-01 5.375000E-01 -9.987368E-02
2.062500E-01 5.437500E-01 -1.059027E-01
2.125000E-01 5.875000E-01 -2.077075E-01
1.687500E-01 5.812500E-01 -2.118782E-01
3.125000E-01 6.250000E-01 -2.076495E-01
3.750000E-01 6.250000E-01 -1.426203E-01
3.750000E-01 6.875000E-01 -2.076495E-01
2.875000E-01 6.625000E-01 -2.947374E-01
3.312500E-01 6.687500E-01 -2.485809E-01
3.375000E-01 7.125000E-01 -2.947374E-01
2.937500E-01 7.062500E-01 -3.545635E-01
4.375000E-01 6.250000E-01 -7.327265E-02
5.000000E-01 6.250000E-01 4.672924E-04
5.000000E-01 6.875000E-01 -4.279355E-04
4.125000E-01 6.625000E-01 -1.294323E-01
4.562500E-01 6.687500E-01 -6.685488E-02
4.625000E-01 7.125000E-01 -7.107665E-02
4.187500E-01 7.062500E-01 -1.479672E-01
3.125000E-01 5.000000E-01 -4.279355E-04
3.750000E-01 5.000000E-01 4.672924E-04
3.750000E-01 5.625000E-01 -7.327265E-02
2.875000E-01 5.375000E-01 -7.107665E-02
3.312500E-01 5.437500E-01 -6.685488E-02
3.375000E-01 5.875000E-01 -1.294323E-01
2.937500E-01 5.812500E-01 -1.479672E-01
4.375000E-01 5.000000E-01 -5.493851E-04
5.000000E-01 5.000000E-01 4.858676E-04
5.000000E-01 5.625000E-01 -5.493851E-04
4.125000E-01 5.375000E-01 -3.140988E-02
4.562500E-01 5.437500E-01 -1.758477E-02
4.625000E-01 5.875000E-01 -3.140988E-02
4.187500E-01 5.812500E-01 -6.148254E-02
5.625000E-01 8.750000E-01 1.756748E-01
6.250000E-01 8.750000E-01 3.457372E-01
6.250000E-01 9.375000E-01 3.660334E-01
6.250000E-01 1.000000E+00 3.742140E-01
5.625000E-01 1.000000E+00 1.904484E-01
5.375000E-01 9.125000E-01 1.102319E-01
5.812500E-01 9.187500E-01 2.385469E-01
5.875000E-01 9.625000E-01 2.627265E-01
5.437500E-01 9.562500E-01 1.325859E-01
6.875000E-01 8.750000E-01 5.003689E-01
7.500000E-01 8.750000E-01 6.384875E-01
7.500000E-01 9.375000E-01 6.762086E-01
7.500000E-01 1.000000E+00 6.910726E-01
6.875000E-01 1.000000E+00 5.418417E-01
6.625000E-01 9.125000E-01 4.579938E-01
7.062500E-01 9.187500E-01 5.695517E-01
7.125000E-01 9.625000E-01 5.988592E-01
6.687500E-01 9.562500E-01 4.884650E-01
5.625000E-01 7.500000E-01 1.341707E-01
6.250000E-01 7.500000E-01 2.647550E-01
6.250000E-01 8.125000E-01 3.100283E-01
5.375000E-01 7.875000E-01 8.972137E-02
5.812500E-01 7.937500E-01 1.967617E-01
5.875000E-01 8.375000E-01 2.306010E-01
5.437500E-01 8.312500E-01 1.156585E-01
6.875000E-01 7.500000E-01 3.827399E-01
7.500000E-01 7.500000E-01 4.888109E-01
7.500000E-01 8.125000E-01 5.730704E-01
6.625000E-01 7.875000E-01 3.735110E-01
7.062500E-01 7.937500E-01 4.694907E-01
7.125000E-01 8.375000E-01 5.259834E-01
6.687500E-01 8.312500E-01 4.256028E-01
8.125000E-01 8.750000E-01 7.488927E-01
8.750000E-01 8.750000E-01 8.340379E-01
8.750000E-01 9.375000E-01 8.834153E-01
8.750000E-01 1.000000E+00 9.026860E-01
8.125000E-01 1.000000E+00 8.107332E-01
7.875000E-01 9.125000E-01 7.360316E-01
8.312500E-01 9.187500E-01 8.138413E-01
8.375000E-01 9.625000E-01 8.438051E-01
7.937500E-01 9.562500E-01 7.699743E-01
9.375000E-01 8.750000E-01 8.834153E-01
1.000000E+00 8.750000E-01 9.026860E-01
1.000000E+00 9.375000E-01 9.561043E-01
1.000000E+00 1.000000E+00 9.764986E-01
9.375000E-01 1.000000E+00 9.561043E-01
9.125000E-01 9.125000E-01 9.019986E-01
9.562500E-01 9.187500E-01 9.342076E-01
9.625000E-01 9.625000E-01 9.601803E-01
9.187500E-01 9.562500E-01 9.342076E-01
8.125000E-01 7.500000E-01 5.730704E-01
8.750000E-01 7.500000E-01 6.384875E-01
8.750000E-01 8.125000E-01 7.488927E-01
7.875000E-01 7.875000E-01 6.004598E-01
8.312500E-01 7.937500E-01 6.707683E-01
8.375000E-01 8.375000E-01 7.413048E-01
7.937500E-01 8.312500E-01 6.707683E-01
9.375000E-01 7.500000E-01 6.762086E-01
1.000000E+00 7.500000E-01 6.910726E-01
1.000000E+00 8.125000E-01 8.107332E-01
9.125000E-01 7.875000E-01 7.360316E-01
9.562500E-01 7.937500E-01 7.699743E-01
9.625000E-01 8.375000E-01 8.438051E-01
9.187500E-01 8.312500E-01 8.138413E-01
5.625000E-01 6.250000E-01 7.229355E-02
6.250000E-01 6.250000E-01 1.435170E-01
6.250000E-01 6.875000E-01 2.068880E-01
5.375000E-01 6.625000E-01 5.561059E-02
5.812500E-01 6.687500E-01 1.250802E-01
5.875000E-01 7.125000E-01 1.634322E-01
5.437500E-01 7.062500E-01 8.118473E-02
6.875000E-01 6.250000E-01 2.068880E-01
7.500000E-01 6.250000E-01 2.647550E-01
7.500000E-01 6.875000E-01 3.827399E-01
6.625000E-01 6.625000E-01 2.322186E-01
7.062500E-01 6.687500E-01 2.980050E-01
7.125000E-01 7.125000E-01 3.730886E-01
6.687500E-01 7.062500E-01 2.980050E-01
5.625000E-01 5.000000E-01 -5.493851E-04
6.250000E-01 5.000000E-01 4.672924E-04
6.250000E-01 5.625000E-01 7.229355E-02
5.375000E-01 5.375000E-01 1.307736E-02
5.812500E-01 5.437500E-01 3.439938E-02
5.875000E-01 5.875000E-01 7.142986E-02
5.437500E-01 5.812500E-01 3.439938E-02
6.875000E-01 5.000000E-01 -4.279355E-04
7.500000E-01 5.000000E-01 4.186770E-04
7.500000E-01 5.625000E-01 1.341707E-01
6.625000E-01 5.375000E-01 5.561059E-02
7.062500E-01 5.437500E-01 8.118473E-02
7.125000E-01 5.875000E-01 1.634322E-01
6.687500E-01 5.812500E-01 1.250802E-01
8.125000E-01 6.250000E-01 3.100283E-01
8.750000E-01 6.250000E-01 3.457372E-01
8.750000E-01 6.875000E-01 5.003689E-01
7.875000E-01 6.625000E-01 3.735110E-01
8.312500E-01 6.687500E-01 4.256028E-01
8.375000E-01 7.125000E-01 5.259834E-01
7.937500E-01 7.062500E-01 4.694907E-01
9.375000E-01 6.250000E-01 3.660334E-01
1.000000E+00 6.250000E-01 3.742140E-01
1.000000E+00 6.875000E-01 5.418417E-01
9.125000E-01 6.625000E-01 4.579938E-01
9.562500E-01 6.687500E-01 4.884650E-01
9.625000E-01 7.125000E-01 5.988592E-01
9.187500E-01 7.062500E-01 5.695517E-01
8.125000E-01 5.000000E-01 -1.949008E-04
8.750000E-01 5.000000E-01 3.605493E-04
8.750000E-01 5.625000E-01 1.756748E-01
7.875000E-01 5.375000E-01 8.972137E-02
8.312500E-01 5.437500E-01 1.156585E-01
8.375000E-01 5.875000E-01 2.306010E-01
7.937500E-01 5.812500E-01 1.967617E-01
9.375000E-01 5.000000E-01 1.347101E-04
1.000000E+00 5.000000E-01 3.837895E-04
1.000000E+00 5.625000E-01 1.904484E-01
9.125000E-01 5.375000E-01 1.102319E-01
9.562500E-01 5.437500E-01 1.325859E-01
9.625000E-01 5.875000E-01 2.627265E-01
9.187500E-01 5.812500E-01 2.385469E-01
0.000000E+00 3.750000E-01 3.742140E-01
6.250000E-02 3.750000E-01 3.660334E-01
[...]
CELL_DATA 896
SCALARS sol float 1
LOOKUP_TABLE default
-9.054803E-01
-9.087939E-01
-9.297746E-01
-8.728573E-01
-9.331543E-01
-8.764726E-01
-9.477615E-01
-8.485627E-01
-8.445790E-01
-9.331543E-01
-8.764726E-01
-8.448807E-01
-9.633295E-01
-8.008192E-01
-8.006804E-01
-9.477615E-01
-9.087939E-01
-8.448807E-01
-8.000645E-01
-9.633295E-01
-7.812152E-01
-7.533974E-01
-7.727127E-01
-9.297746E-01
-9.054803E-01
-8.000645E-01
-8.445790E-01
-7.692529E-01
-7.289534E-01
-7.085816E-01
-7.128194E-01
-8.728573E-01
-7.727127E-01
-7.692529E-01
-8.006804E-01
-7.137455E-01
-6.885253E-01
-6.496608E-01
-6.846637E-01
-8.485627E-01
-7.128194E-01
-7.137455E-01
-7.812152E-01
-6.705116E-01
-6.313520E-01
-6.047928E-01
-6.128593E-01
-6.261285E-01
-8.008192E-01
-6.885253E-01
-6.846637E-01
-6.705116E-01
-7.289534E-01
-6.198765E-01
-5.728226E-01
-5.320383E-01
-5.463493E-01
-5.727862E-01
-7.533974E-01
-6.313520E-01
-6.261285E-01
-6.198765E-01
-7.085816E-01
-5.601942E-01
-5.190004E-01
-5.484980E-01
-5.103963E-01
-4.623846E-01
-5.179716E-01
-5.728226E-01
-6.128593E-01
-5.727862E-01
-5.601942E-01
-6.496608E-01
-5.116316E-01
-4.406479E-01
-4.742282E-01
-4.381687E-01
-4.038446E-01
-4.576874E-01
-5.190004E-01
-5.484980E-01
-5.463493E-01
-5.179716E-01
-5.116316E-01
-6.047928E-01
-4.482809E-01
-3.957693E-01
-4.202004E-01
-4.382321E-01
-3.275829E-01
-4.163816E-01
-4.406479E-01
-4.742282E-01
-5.103963E-01
-4.576874E-01
-4.482809E-01
-5.320383E-01
-4.086373E-01
-3.217134E-01
-3.568529E-01
-3.726415E-01
-2.689687E-01
-2.878510E-01
-3.465361E-01
-3.957693E-01
-4.202004E-01
-4.382321E-01
-4.381687E-01
-4.163816E-01
-4.086373E-01
-4.623846E-01
-3.441754E-01
-2.583720E-01
-2.891028E-01
-3.222512E-01
-1.822691E-01
-2.088479E-01
-3.139736E-01
-3.217134E-01
-3.568529E-01
-3.726415E-01
-4.038446E-01
-3.465361E-01
-3.441754E-01
-2.992939E-01
-2.442302E-01
-1.862749E-01
-2.433189E-01
-2.606787E-01
-1.618803E-01
-1.009838E-01
-2.554482E-01
-2.583720E-01
-2.878510E-01
-2.891028E-01
-3.222512E-01
-3.275829E-01
-3.139736E-01
-2.992939E-01
-2.503226E-01
-1.625017E-01
-1.013868E-01
-1.751628E-01
-2.021553E-01
-8.067793E-02
-3.762734E-02
-2.065248E-01
-1.862749E-01
-2.442302E-01
-2.088479E-01
-2.433189E-01
-2.606787E-01
-2.689687E-01
-2.554482E-01
-2.503226E-01
-1.996169E-01
-1.392182E-01
-9.175541E-02
-4.275757E-02
-1.494703E-01
-1.822418E-01
4.436813E-02
-1.616830E-01
-1.013868E-01
-1.625017E-01
-1.618803E-01
-1.751628E-01
-2.021553E-01
-1.822691E-01
-2.065248E-01
-1.996169E-01
-1.599007E-01
-6.865710E-02
-3.323601E-02
3.690905E-02
-8.009487E-02
-1.179481E-01
1.078060E-01
8.098416E-02
-1.147514E-01
-4.275757E-02
-9.175541E-02
-1.392182E-01
-8.067793E-02
-1.494703E-01
-1.822418E-01
-1.009838E-01
-1.616830E-01
-1.599007E-01
-1.151084E-01
-3.522632E-02
3.860806E-02
9.542240E-02
-6.848617E-02
-9.529957E-02
1.952536E-01
1.604549E-01
-8.985327E-02
3.690905E-02
-3.323601E-02
-6.865710E-02
-3.762734E-02
-8.009487E-02
-1.179481E-01
-1.147514E-01
-1.151084E-01
-9.245848E-02
2.998171E-02
9.723129E-02
6.839500E-02
1.748179E-01
-2.369530E-02
-4.611982E-02
2.112864E-01
2.757963E-01
-4.655341E-02
9.542240E-02
8.098416E-02
3.860806E-02
-3.522632E-02
4.436813E-02
-6.848617E-02
-9.529957E-02
-8.985327E-02
-9.245848E-02
-5.538836E-02
7.477026E-02
1.739781E-01
1.340472E-01
2.533196E-01
2.705849E-02
-2.227184E-02
2.891023E-01
3.343246E-01
-3.473841E-02
1.748179E-01
9.723129E-02
1.604549E-01
6.839500E-02
2.998171E-02
1.078060E-01
-2.369530E-02
-4.611982E-02
-4.655341E-02
-5.538836E-02
-3.682573E-02
7.192471E-02
1.402179E-01
1.810071E-01
2.506710E-01
3.167725E-01
4.545579E-02
1.854998E-02
4.095708E-01
-1.049732E-02
2.533196E-01
1.739781E-01
2.112864E-01
1.340472E-01
7.477026E-02
1.952536E-01
2.705849E-02
-2.227184E-02
-3.473841E-02
-3.682573E-02
-1.651468E-02
1.262626E-01
1.985625E-01
2.457970E-01
2.954555E-01
3.899215E-01
8.729183E-02
4.279048E-02
4.681736E-01
4.374974E-01
1.143910E-02
3.167725E-01
2.506710E-01
1.810071E-01
2.891023E-01
1.402179E-01
7.192471E-02
2.757963E-01
4.545579E-02
1.854998E-02
-1.049732E-02
-1.651468E-02
-5.882762E-03
1.232324E-01
1.874527E-01
2.571817E-01
3.604561E-01
4.346999E-01
8.432810E-02
3.572008E-02
5.430553E-01
5.053368E-01
1.564245E-02
3.899215E-01
2.954555E-01
2.457970E-01
3.343246E-01
1.985625E-01
1.262626E-01
8.729183E-02
4.279048E-02
1.143910E-02
-5.882762E-03
4.337947E-03
1.651335E-01
2.116917E-01
3.160981E-01
4.239030E-01
3.697140E-01
5.093048E-01
1.136303E-01
5.937427E-02
5.522920E-01
6.105912E-01
2.729204E-02
4.346999E-01
4.374974E-01
3.604561E-01
2.571817E-01
4.095708E-01
1.874527E-01
1.232324E-01
8.432810E-02
3.572008E-02
1.564245E-02
4.337947E-03
4.337947E-03
1.584951E-01
2.565493E-01
3.403353E-01
4.839850E-01
4.228682E-01
5.694694E-01
9.574682E-02
4.674288E-02
6.148732E-01
6.553801E-01
1.564245E-02
5.093048E-01
4.239030E-01
5.053368E-01
3.697140E-01
3.160981E-01
4.681736E-01
2.116917E-01
1.651335E-01
1.136303E-01
5.937427E-02
2.729204E-02
4.337947E-03
-5.882762E-03
1.942079E-01
3.151666E-01
2.457038E-01
4.085806E-01
4.736923E-01
5.549466E-01
6.280826E-01
9.574682E-02
5.937427E-02
7.124185E-01
1.143910E-02
5.694694E-01
4.839850E-01
5.522920E-01
4.228682E-01
3.403353E-01
5.430553E-01
2.565493E-01
1.584951E-01
9.574682E-02
4.674288E-02
1.564245E-02
-5.882762E-03
-1.651468E-02
1.942079E-01
3.512778E-01
2.760762E-01
4.470138E-01
5.228482E-01
5.791805E-01
6.835759E-01
1.136303E-01
3.572008E-02
7.572600E-01
7.274048E-01
-1.049732E-02
6.280826E-01
5.549466E-01
4.736923E-01
6.148732E-01
4.085806E-01
3.151666E-01
6.105912E-01
2.457038E-01
1.942079E-01
9.574682E-02
5.937427E-02
1.143910E-02
-1.651468E-02
-3.682573E-02
1.584951E-01
2.457038E-01
3.230329E-01
4.148798E-01
5.104574E-01
6.274421E-01
7.078039E-01
8.432810E-02
4.279048E-02
8.081709E-01
7.732824E-01
-3.473841E-02
6.835759E-01
5.791805E-01
5.228482E-01
6.553801E-01
4.470138E-01
3.512778E-01
2.760762E-01
1.942079E-01
1.136303E-01
3.572008E-02
-1.049732E-02
-3.682573E-02
-5.538836E-02
1.651335E-01
2.565493E-01
3.512778E-01
4.148798E-01
5.541137E-01
6.860495E-01
6.147662E-01
7.662552E-01
8.729183E-02
1.854998E-02
8.092069E-01
8.524081E-01
-4.655341E-02
7.078039E-01
7.274048E-01
6.274421E-01
5.104574E-01
7.124185E-01
4.148798E-01
3.230329E-01
2.457038E-01
1.584951E-01
8.432810E-02
4.279048E-02
-3.473841E-02
-5.538836E-02
-9.245848E-02
1.232324E-01
2.116917E-01
3.151666E-01
4.470138E-01
5.541137E-01
7.203219E-01
6.473322E-01
7.989240E-01
4.545579E-02
-2.227184E-02
8.470206E-01
8.766355E-01
-8.985327E-02
7.662552E-01
6.860495E-01
7.732824E-01
6.147662E-01
5.541137E-01
7.572600E-01
4.148798E-01
3.512778E-01
2.565493E-01
1.651335E-01
8.729183E-02
1.854998E-02
-4.655341E-02
-9.245848E-02
-1.151084E-01
1.262626E-01
1.874527E-01
3.403353E-01
5.104574E-01
4.085806E-01
6.147662E-01
6.942805E-01
7.747451E-01
8.437648E-01
2.705849E-02
-4.611982E-02
9.067697E-01
-1.147514E-01
7.989240E-01
7.203219E-01
8.092069E-01
6.473322E-01
5.541137E-01
8.081709E-01
4.470138E-01
3.151666E-01
2.116917E-01
1.232324E-01
4.545579E-02
-2.227184E-02
-8.985327E-02
-1.151084E-01
-1.599007E-01
7.192471E-02
1.985625E-01
3.160981E-01
5.228482E-01
4.228682E-01
6.274421E-01
7.203219E-01
7.747451E-01
8.731506E-01
-2.369530E-02
-9.529957E-02
9.309993E-01
9.065405E-01
-1.616830E-01
8.437648E-01
7.747451E-01
6.942805E-01
8.470206E-01
6.147662E-01
5.104574E-01
8.524081E-01
4.085806E-01
3.403353E-01
1.874527E-01
1.262626E-01
2.705849E-02
-4.611982E-02
-1.147514E-01
-1.599007E-01
-1.996169E-01
7.477026E-02
2.571817E-01
1.402179E-01
3.697140E-01
4.736923E-01
5.791805E-01
6.860495E-01
7.989240E-01
8.731506E-01
-6.848617E-02
-1.179481E-01
9.501641E-01
9.234713E-01
-2.065248E-01
8.731506E-01
7.747451E-01
7.203219E-01
8.766355E-01
6.274421E-01
5.228482E-01
4.228682E-01
3.160981E-01
1.985625E-01
7.192471E-02
-2.369530E-02
-9.529957E-02
-1.616830E-01
-1.996169E-01
-2.503226E-01
2.998171E-02
2.457970E-01
1.340472E-01
3.604561E-01
4.839850E-01
5.549466E-01
7.078039E-01
8.437648E-01
7.662552E-01
9.065405E-01
-8.009487E-02
-1.822418E-01
9.428652E-01
9.642611E-01
-2.554482E-01
8.731506E-01
9.065405E-01
7.989240E-01
6.860495E-01
9.067697E-01
5.791805E-01
4.736923E-01
3.697140E-01
2.571817E-01
1.402179E-01
7.477026E-02
-6.848617E-02
-1.179481E-01
-2.065248E-01
-2.503226E-01
-2.992939E-01
6.839500E-02
-3.522632E-02
1.810071E-01
2.954555E-01
4.239030E-01
5.694694E-01
6.835759E-01
8.470206E-01
7.732824E-01
9.067697E-01
-1.494703E-01
-2.021553E-01
9.501641E-01
9.642611E-01
-3.139736E-01
9.065405E-01
8.437648E-01
9.234713E-01
7.662552E-01
7.078039E-01
9.309993E-01
5.549466E-01
4.839850E-01
3.604561E-01
2.457970E-01
1.340472E-01
2.998171E-02
-8.009487E-02
-1.822418E-01
-2.554482E-01
-2.992939E-01
-3.441754E-01
3.860806E-02
-6.865710E-02
1.739781E-01
2.506710E-01
4.346999E-01
6.280826E-01
5.093048E-01
7.274048E-01
8.092069E-01
8.766355E-01
9.309993E-01
-1.751628E-01
-2.606787E-01
-3.465361E-01
9.067697E-01
8.470206E-01
9.428652E-01
7.732824E-01
6.835759E-01
9.501641E-01
5.694694E-01
4.239030E-01
2.954555E-01
1.810071E-01
6.839500E-02
-3.522632E-02
-1.494703E-01
-2.021553E-01
-3.139736E-01
-3.441754E-01
-4.086373E-01
9.723129E-02
-3.323601E-02
-1.392182E-01
2.533196E-01
3.899215E-01
6.148732E-01
5.053368E-01
7.124185E-01
8.081709E-01
8.524081E-01
-2.433189E-01
-3.222512E-01
-4.163816E-01
9.309993E-01
8.766355E-01
8.092069E-01
9.501641E-01
7.274048E-01
6.280826E-01
9.642611E-01
5.093048E-01
4.346999E-01
2.506710E-01
1.739781E-01
3.860806E-02
-6.865710E-02
-1.751628E-01
-2.606787E-01
-3.465361E-01
-4.086373E-01
-4.482809E-01
9.542240E-02
-9.175541E-02
-1.625017E-01
3.167725E-01
1.748179E-01
4.374974E-01
5.522920E-01
6.553801E-01
7.572600E-01
-2.891028E-01
-3.726415E-01
-4.576874E-01
8.524081E-01
8.081709E-01
9.642611E-01
7.124185E-01
6.148732E-01
5.053368E-01
3.899215E-01
2.533196E-01
9.723129E-02
-3.323601E-02
-1.392182E-01
-2.433189E-01
-3.222512E-01
-4.163816E-01
-4.482809E-01
-5.116316E-01
3.690905E-02
-1.013868E-01
-2.442302E-01
2.891023E-01
1.604549E-01
4.095708E-01
5.430553E-01
6.105912E-01
-3.568529E-01
-4.382321E-01
-5.179716E-01
7.572600E-01
6.553801E-01
5.522920E-01
4.374974E-01
3.167725E-01
1.748179E-01
9.542240E-02
-9.175541E-02
-1.625017E-01
-2.891028E-01
-3.726415E-01
-4.576874E-01
-5.116316E-01
-5.601942E-01
8.098416E-02
-4.275757E-02
-1.862749E-01
-2.583720E-01
2.112864E-01
3.343246E-01
4.681736E-01
-4.202004E-01
-4.742282E-01
-5.727862E-01
6.105912E-01
5.430553E-01
4.095708E-01
2.891023E-01
1.604549E-01
3.690905E-02
-1.013868E-01
-2.442302E-01
-3.568529E-01
-4.382321E-01
-5.179716E-01
-5.601942E-01
-6.198765E-01
4.436813E-02
-8.067793E-02
-2.088479E-01
-3.217134E-01
1.952536E-01
2.757963E-01
-4.406479E-01
-5.484980E-01
-6.261285E-01
4.681736E-01
3.343246E-01
2.112864E-01
8.098416E-02
-4.275757E-02
-1.862749E-01
-2.583720E-01
-4.202004E-01
-4.742282E-01
-5.727862E-01
-6.198765E-01
-6.705116E-01
1.078060E-01
-3.762734E-02
-1.618803E-01
-2.878510E-01
-3.957693E-01
-5.190004E-01
-5.728226E-01
-6.846637E-01
2.757963E-01
1.952536E-01
4.436813E-02
-8.067793E-02
-2.088479E-01
-3.217134E-01
-4.406479E-01
-5.484980E-01
-6.261285E-01
-6.705116E-01
-7.137455E-01
-1.009838E-01
-1.822691E-01
-3.275829E-01
-4.381687E-01
-5.463493E-01
-6.313520E-01
-7.128194E-01
1.078060E-01
-3.762734E-02
-1.618803E-01
-2.878510E-01
-3.957693E-01
-5.190004E-01
-5.728226E-01
-6.846637E-01
-7.137455E-01
-7.692529E-01
-2.689687E-01
-4.038446E-01
-5.103963E-01
-6.128593E-01
-6.885253E-01
-7.727127E-01
-1.009838E-01
-1.822691E-01
-3.275829E-01
-4.381687E-01
-5.463493E-01
-6.313520E-01
-7.128194E-01
-7.692529E-01
-8.000645E-01
-4.623846E-01
-5.320383E-01
-6.496608E-01
-7.289534E-01
-8.006804E-01
-2.689687E-01
-4.038446E-01
-5.103963E-01
-6.128593E-01
-6.885253E-01
-7.727127E-01
-8.000645E-01
-8.448807E-01
-6.047928E-01
-7.085816E-01
-7.812152E-01
-8.445790E-01
-4.623846E-01
-5.320383E-01
-6.496608E-01
-7.289534E-01
-8.006804E-01
-8.448807E-01
-8.764726E-01
-7.533974E-01
-8.008192E-01
-8.728573E-01
-6.047928E-01
-7.085816E-01
-7.812152E-01
-8.445790E-01
-8.764726E-01
-9.087939E-01
-8.485627E-01
-9.054803E-01
-7.533974E-01
-8.008192E-01
-8.728573E-01
-9.087939E-01
-9.331543E-01
-9.297746E-01
-8.485627E-01
-9.054803E-01
-9.331543E-01
-9.477615E-01
-9.297746E-01
-9.477615E-01
-9.633295E-01
-9.633295E-01
