# vtk DataFile Version 2.0
Grille
ASCII
DATASET POLYDATA
POINTS 481 float
0.000000E+00 8.750000E-01 -9.242316E-01
6.250000E-02 8.750000E-01 -9.046528E-01
1.250000E-01 8.750000E-01 -8.538213E-01
1.250000E-01 9.375000E-01 -9.046528E-01
1.250000E-01 1.000000E+00 -9.242316E-01
6.250000E-02 1.000000E+00 -9.792837E-01
0.000000E+00 1.000000E+00 -1.000935E+00
0.000000E+00 9.375000E-01 -9.792837E-01
3.750000E-02 9.125000E-01 -9.531112E-01
8.125000E-02 9.187500E-01 -9.344107E-01
8.750000E-02 9.625000E-01 -9.531112E-01
4.375000E-02 9.562500E-01 -9.794869E-01
1.875000E-01 8.750000E-01 -7.669784E-01
2.500000E-01 8.750000E-01 -6.533706E-01
2.500000E-01 9.375000E-01 -6.923479E-01
2.500000E-01 1.000000E+00 -7.072160E-01
1.875000E-01 1.000000E+00 -8.300209E-01
1.625000E-01 9.125000E-01 -8.373618E-01
2.062500E-01 9.187500E-01 -7.697976E-01
2.125000E-01 9.625000E-01 -7.775657E-01
1.687500E-01 9.562500E-01 -8.528947E-01
0.000000E+00 7.500000E-01 -7.072160E-01
6.250000E-02 7.500000E-01 -6.923479E-01
1.250000E-01 7.500000E-01 -6.533706E-01
1.250000E-01 8.125000E-01 -7.669784E-01
0.000000E+00 8.125000E-01 -8.300209E-01
3.750000E-02 7.875000E-01 -7.775657E-01
8.125000E-02 7.937500E-01 -7.697976E-01
8.750000E-02 8.375000E-01 -8.373618E-01
4.375000E-02 8.312500E-01 -8.528947E-01
1.875000E-01 7.500000E-01 -5.871577E-01
2.500000E-01 7.500000E-01 -4.999579E-01
2.500000E-01 8.125000E-01 -5.871577E-01
1.625000E-01 7.875000E-01 -6.833032E-01
2.062500E-01 7.937500E-01 -6.341635E-01
2.125000E-01 8.375000E-01 -6.833032E-01
1.687500E-01 8.312500E-01 -7.427092E-01
3.125000E-01 8.750000E-01 -5.125456E-01
3.750000E-01 8.750000E-01 -3.534635E-01
3.750000E-01 9.375000E-01 -3.746801E-01
3.750000E-01 1.000000E+00 -3.825875E-01
3.125000E-01 1.000000E+00 -5.545148E-01
2.875000E-01 9.125000E-01 -5.941626E-01
3.312500E-01 9.187500E-01 -4.880300E-01
3.375000E-01 9.625000E-01 -4.837157E-01
2.937500E-01 9.562500E-01 -5.965627E-01
4.375000E-01 8.750000E-01 -1.800935E-01
5.000000E-01 8.750000E-01 2.475507E-04
5.000000E-01 9.375000E-01 1.456689E-05
5.000000E-01 1.000000E+00 2.692929E-04
4.375000E-01 1.000000E+00 -1.946177E-01
4.125000E-01 9.125000E-01 -2.605305E-01
4.562500E-01 9.187500E-01 -1.319818E-01
4.625000E-01 9.625000E-01 -1.162463E-01
4.187500E-01 9.562500E-01 -2.494403E-01
3.125000E-01 7.500000E-01 -3.925418E-01
3.750000E-01 7.500000E-01 -2.704104E-01
3.750000E-01 8.125000E-01 -3.179402E-01
2.875000E-01 7.875000E-01 -4.849785E-01
3.312500E-01 7.937500E-01 -4.019632E-01
3.375000E-01 8.375000E-01 -4.252131E-01
2.937500E-01 8.312500E-01 -5.194360E-01
4.375000E-01 7.500000E-01 -1.381523E-01
5.000000E-01 7.500000E-01 3.130615E-04
5.000000E-01 8.125000E-01 -3.184482E-04
4.125000E-01 7.875000E-01 -2.128113E-01
4.562500E-01 7.937500E-01 -1.085628E-01
4.625000E-01 8.375000E-01 -1.023911E-01
4.187500E-01 8.312500E-01 -2.170842E-01
0.000000E+00 6.250000E-01 -3.825875E-01
6.250000E-02 6.250000E-01 -3.746801E-01
1.250000E-01 6.250000E-01 -3.534635E-01
1.250000E-01 6.875000E-01 -5.125456E-01
0.000000E+00 6.875000E-01 -5.545148E-01
3.750000E-02 6.625000E-01 -4.837157E-01
8.125000E-02 6.687500E-01 -4.880300E-01
8.750000E-02 7.125000E-01 -5.941626E-01
4.375000E-02 7.062500E-01 -5.965627E-01
1.875000E-01 6.250000E-01 -3.179402E-01
2.500000E-01 6.250000E-01 -2.704104E-01
2.500000E-01 6.875000E-01 -3.925418E-01
1.625000E-01 6.625000E-01 -4.252131E-01
2.062500E-01 6.687500E-01 -4.019632E-01
2.125000E-01 7.125000E-01 -4.849785E-01
1.687500E-01 7.062500E-01 -5.194360E-01
0.000000E+00 5.000000E-01 2.692929E-04
6.250000E-02 5.000000E-01 1.456689E-05
1.250000E-01 5.000000E-01 2.475507E-04
1.250000E-01 5.625000E-01 -1.800935E-01
0.000000E+00 5.625000E-01 -1.946177E-01
3.750000E-02 5.375000E-01 -1.162463E-01
8.125000E-02 5.437500E-01 -1.319818E-01
8.750000E-02 5.875000E-01 -2.605305E-01
4.375000E-02 5.812500E-01 -2.494403E-01
1.875000E-01 5.000000E-01 -3.184482E-04
2.500000E-01 5.000000E-01 3.130615E-04
2.500000E-01 5.625000E-01 -1.381523E-01
1.625000E-01 5.375000E-01 -1.023911E-01
2.062500E-01 5.437500E-01 -1.085628E-01
2.125000E-01 5.875000E-01 -2.128113E-01
1.687500E-01 5.812500E-01 -2.170842E-01
3.125000E-01 6.250000E-01 -2.127479E-01
3.750000E-01 6.250000E-01 -1.461556E-01
3.750000E-01 6.875000E-01 -2.127479E-01
2.875000E-01 6.625000E-01 -3.019280E-01
3.312500E-01 6.687500E-01 -2.546622E-01
3.375000E-01 7.125000E-01 -3.019280E-01
2.937500E-01 7.062500E-01 -3.631911E-01
4.375000E-01 6.250000E-01 -7.514187E-02
5.000000E-01 6.250000E-01 3.687299E-04
5.000000E-01 6.875000E-01 -5.506665E-04
4.125000E-01 6.625000E-01 -1.326515E-01
4.562500E-01 6.687500E-01 -6.857148E-02
4.625000E-01 7.125000E-01 -7.289666E-02
4.187500E-01 7.062500E-01 -1.516332E-01
3.125000E-01 5.000000E-01 -5.506665E-04
3.750000E-01 5.000000E-01 3.687299E-04
3.750000E-01 5.625000E-01 -7.514187E-02
2.875000E-01 5.375000E-01 -7.289666E-02
3.312500E-01 5.437500E-01 -6.857148E-02
3.375000E-01 5.875000E-01 -1.326515E-01
2.937500E-01 5.812500E-01 -1.516332E-01
4.375000E-01 5.000000E-01 -6.705963E-04
5.000000E-01 5.000000E-01 3.901458E-04
5.000000E-01 5.625000E-01 -6.705963E-04
4.125000E-01 5.375000E-01 -3.227274E-02
4.562500E-01 5.437500E-01 -1.811490E-02
4.625000E-01 5.875000E-01 -3.227274E-02
4.187500E-01 5.812500E-01 -6.306795E-02
5.625000E-01 8.750000E-01 1.797706E-01
6.250000E-01 8.750000E-01 3.539160E-01
6.250000E-01 9.375000E-01 3.746982E-01
6.250000E-01 1.000000E+00 3.830749E-01
5.625000E-01 1.000000E+00 1.948966E-01
5.375000E-01 9.125000E-01 1.127553E-01
5.812500E-01 9.187500E-01 2.441511E-01
5.875000E-01 9.625000E-01 2.689105E-01
5.437500E-01 9.562500E-01 1.356451E-01
6.875000E-01 8.750000E-01 5.122608E-01
7.500000E-01 8.750000E-01 6.536963E-01
7.500000E-01 9.375000E-01 6.923226E-01
7.500000E-01 1.000000E+00 7.075435E-01
6.875000E-01 1.000000E+00 5.547281E-01
6.625000E-01 9.125000E-01 4.688673E-01
7.062500E-01 9.187500E-01 5.831043E-01
7.125000E-01 9.625000E-01 6.131153E-01
6.687500E-01 9.562500E-01 5.000696E-01
5.625000E-01 7.500000E-01 1.372758E-01
6.250000E-01 7.500000E-01 2.709945E-01
6.250000E-01 8.125000E-01 3.173521E-01
5.375000E-01 7.875000E-01 9.175749E-02
5.812500E-01 7.937500E-01 2.013673E-01
5.875000E-01 8.375000E-01 2.360170E-01
5.437500E-01 8.312500E-01 1.183152E-01
6.875000E-01 7.500000E-01 3.918111E-01
7.500000E-01 7.500000E-01 5.004277E-01
7.500000E-01 8.125000E-01 5.867094E-01
6.625000E-01 7.875000E-01 3.823596E-01
7.062500E-01 7.937500E-01 4.806434E-01
7.125000E-01 8.375000E-01 5.384915E-01
6.687500E-01 8.312500E-01 4.357007E-01
8.125000E-01 8.750000E-01 7.667531E-01
8.750000E-01 8.750000E-01 8.539433E-01
8.750000E-01 9.375000E-01 9.045070E-01
8.750000E-01 1.000000E+00 9.242406E-01
8.125000E-01 1.000000E+00 8.300785E-01
7.875000E-01 9.125000E-01 7.535827E-01
8.312500E-01 9.187500E-01 8.332616E-01
8.375000E-01 9.625000E-01 8.639451E-01
7.937500E-01 9.562500E-01 7.883405E-01
9.375000E-01 8.750000E-01 9.045070E-01
1.000000E+00 8.750000E-01 9.242406E-01
1.000000E+00 9.375000E-01 9.789424E-01
1.000000E+00 1.000000E+00 9.998267E-01
9.375000E-01 1.000000E+00 9.789424E-01
9.125000E-01 9.125000E-01 9.235367E-01
9.562500E-01 9.187500E-01 9.565195E-01
9.625000E-01 9.625000E-01 9.831164E-01
9.187500E-01 9.562500E-01 9.565195E-01
8.125000E-01 7.500000E-01 5.867094E-01
8.750000E-01 7.500000E-01 6.536963E-01
8.750000E-01 8.125000E-01 7.667531E-01
7.875000E-01 7.875000E-01 6.147564E-01
8.312500E-01 7.937500E-01 6.867529E-01
8.375000E-01 8.375000E-01 7.589832E-01
7.937500E-01 8.312500E-01 6.867529E-01
9.375000E-01 7.500000E-01 6.923226E-01
1.000000E+00 7.500000E-01 7.075435E-01
1.000000E+00 8.125000E-01 8.300785E-01
9.125000E-01 7.875000E-01 7.535827E-01
9.562500E-01 7.937500E-01 7.883405E-01
9.625000E-01 8.375000E-01 8.639451E-01
9.187500E-01 8.312500E-01 8.332616E-01
5.625000E-01 6.250000E-01 7.391874E-02
6.250000E-01 6.250000E-01 1.468506E-01
6.250000E-01 6.875000E-01 2.117408E-01
5.375000E-01 6.625000E-01 5.683402E-02
5.812500E-01 6.687500E-01 1.279706E-01
5.875000E-01 7.125000E-01 1.672414E-01
5.437500E-01 7.062500E-01 8.302003E-02
6.875000E-01 6.250000E-01 2.117408E-01
7.500000E-01 6.250000E-01 2.709945E-01
7.500000E-01 6.875000E-01 3.918111E-01
6.625000E-01 6.625000E-01 2.376793E-01
7.062500E-01 6.687500E-01 3.050436E-01
7.125000E-01 7.125000E-01 3.819287E-01
6.687500E-01 7.062500E-01 3.050436E-01
5.625000E-01 5.000000E-01 -6.705963E-04
6.250000E-01 5.000000E-01 3.687299E-04
6.250000E-01 5.625000E-01 7.391874E-02
5.375000E-01 5.375000E-01 1.328336E-02
5.812500E-01 5.437500E-01 3.511640E-02
5.875000E-01 5.875000E-01 7.303491E-02
5.437500E-01 5.812500E-01 3.511640E-02
6.875000E-01 5.000000E-01 -5.506665E-04
7.500000E-01 5.000000E-01 3.130615E-04
7.500000E-01 5.625000E-01 1.372758E-01
6.625000E-01 5.375000E-01 5.683402E-02
7.062500E-01 5.437500E-01 8.302003E-02
7.125000E-01 5.875000E-01 1.672414E-01
6.687500E-01 5.812500E-01 1.279706E-01
8.125000E-01 6.250000E-01 3.173521E-01
8.750000E-01 6.250000E-01 3.539160E-01
8.750000E-01 6.875000E-01 5.122608E-01
7.875000E-01 6.625000E-01 3.823596E-01
8.312500E-01 6.687500E-01 4.357007E-01
8.375000E-01 7.125000E-01 5.384915E-01
7.937500E-01 7.062500E-01 4.806434E-01
9.375000E-01 6.250000E-01 3.746982E-01
1.000000E+00 6.250000E-01 3.830749E-01
1.000000E+00 6.875000E-01 5.547281E-01
9.125000E-01 6.625000E-01 4.688673E-01
9.562500E-01 6.687500E-01 5.000696E-01
9.625000E-01 7.125000E-01 6.131153E-01
9.187500E-01 7.062500E-01 5.831043E-01
8.125000E-01 5.000000E-01 -3.184482E-04
8.750000E-01 5.000000E-01 2.475507E-04
8.750000E-01 5.625000E-01 1.797706E-01
7.875000E-01 5.375000E-01 9.175749E-02
8.312500E-01 5.437500E-01 1.183152E-01
8.375000E-01 5.875000E-01 2.360170E-01
7.937500E-01 5.812500E-01 2.013673E-01
9.375000E-01 5.000000E-01 1.456689E-05
1.000000E+00 5.000000E-01 2.692929E-04
1.000000E+00 5.625000E-01 1.948966E-01
9.125000E-01 5.375000E-01 1.127553E-01
9.562500E-01 5.437500E-01 1.356451E-01
9.625000E-01 5.875000E-01 2.689105E-01
9.187500E-01 5.812500E-01 2.441511E-01
0.000000E+00 3.750000E-01 3.830749E-01
6.250000E-02 3.750000E-01 3.746982E-01
[...]
CELL_DATA 896
SCALARS sol float 1
LOOKUP_TABLE default
-9.273319E-01
-9.307249E-01
-9.522088E-01
-8.939264E-01
-9.556696E-01
-8.976283E-01
-9.706273E-01
-8.690491E-01
-8.649698E-01
-9.556696E-01
-8.976283E-01
-8.652786E-01
-9.865685E-01
-8.201605E-01
-8.200181E-01
-9.706273E-01
-9.307249E-01
-8.652786E-01
-8.193872E-01
-9.865685E-01
-8.000860E-01
-7.716009E-01
-7.913793E-01
-9.522088E-01
-9.273319E-01
-8.193872E-01
-8.649698E-01
-7.878363E-01
-7.465704E-01
-7.257099E-01
-7.300488E-01
-8.939264E-01
-7.913793E-01
-7.878363E-01
-8.200181E-01
-7.309969E-01
-7.051720E-01
-6.653756E-01
-7.012174E-01
-8.690491E-01
-7.300488E-01
-7.309969E-01
-8.000860E-01
-6.867253E-01
-6.466270E-01
-6.194312E-01
-6.276911E-01
-6.412772E-01
-8.201605E-01
-7.051720E-01
-7.012174E-01
-6.867253E-01
-7.465704E-01
-6.348748E-01
-5.866929E-01
-5.449311E-01
-5.595851E-01
-5.866548E-01
-7.716009E-01
-6.466270E-01
-6.412772E-01
-6.348748E-01
-7.257099E-01
-5.737597E-01
-5.315794E-01
-5.617841E-01
-5.227695E-01
-4.736060E-01
-5.305241E-01
-5.866929E-01
-6.276911E-01
-5.866548E-01
-5.737597E-01
-6.653756E-01
-5.240314E-01
-4.513464E-01
-4.857316E-01
-4.488086E-01
-4.136611E-01
-4.687925E-01
-5.315794E-01
-5.617841E-01
-5.595851E-01
-5.305241E-01
-5.240314E-01
-6.194312E-01
-4.591594E-01
-4.053912E-01
-4.304074E-01
-4.488708E-01
-3.355693E-01
-4.264945E-01
-4.513464E-01
-4.857316E-01
-5.227695E-01
-4.687925E-01
-4.591594E-01
-5.449311E-01
-4.185636E-01
-3.295580E-01
-3.655389E-01
-3.817055E-01
-2.755485E-01
-2.948836E-01
-3.549718E-01
-4.053912E-01
-4.304074E-01
-4.488708E-01
-4.488086E-01
-4.264945E-01
-4.185636E-01
-4.736060E-01
-3.525536E-01
-2.646958E-01
-2.961626E-01
-3.301046E-01
-1.867681E-01
-2.139842E-01
-3.216267E-01
-3.295580E-01
-3.655389E-01
-3.817055E-01
-4.136611E-01
-3.549718E-01
-3.525536E-01
-3.065938E-01
-2.502137E-01
-1.908686E-01
-2.492786E-01
-2.670540E-01
-1.658895E-01
-1.035315E-01
-2.616954E-01
-2.646958E-01
-2.948836E-01
-2.961626E-01
-3.301046E-01
-3.355693E-01
-3.216267E-01
-3.065938E-01
-2.564461E-01
-1.665229E-01
-1.039426E-01
-1.794861E-01
-2.071247E-01
-8.273784E-02
-3.865414E-02
-2.115972E-01
-1.908686E-01
-2.502137E-01
-2.139842E-01
-2.492786E-01
-2.670540E-01
-2.755485E-01
-2.616954E-01
-2.564461E-01
-2.045219E-01
-1.426794E-01
-9.407904E-02
-4.390657E-02
-1.531755E-01
-1.867320E-01
4.530965E-02
-1.656775E-01
-1.039426E-01
-1.665229E-01
-1.658895E-01
-1.794861E-01
-2.071247E-01
-1.867681E-01
-2.115972E-01
-2.045219E-01
-1.638517E-01
-7.042413E-02
-3.415401E-02
3.767248E-02
-8.213401E-02
-1.208940E-01
1.102703E-01
8.280499E-02
-1.176187E-01
-4.390657E-02
-9.407904E-02
-1.426794E-01
-8.273784E-02
-1.531755E-01
-1.867320E-01
-1.035315E-01
-1.656775E-01
-1.638517E-01
-1.179830E-01
-3.618940E-02
3.941476E-02
9.759116E-02
-7.024529E-02
-9.770045E-02
1.998174E-01
1.641838E-01
-9.212161E-02
3.767248E-02
-3.415401E-02
-7.042413E-02
-3.865414E-02
-8.213401E-02
-1.208940E-01
-1.176187E-01
-1.179830E-01
-9.478846E-02
3.058404E-02
9.944445E-02
6.991808E-02
1.788923E-01
-2.437809E-02
-4.733960E-02
2.162355E-01
2.822940E-01
-4.778154E-02
9.759116E-02
8.280499E-02
3.941476E-02
-3.618940E-02
4.530965E-02
-7.024529E-02
-9.770045E-02
-9.212161E-02
-9.478846E-02
-5.682752E-02
7.644879E-02
1.780343E-01
1.371467E-01
2.592793E-01
2.759414E-02
-2.291781E-02
2.959199E-01
3.422279E-01
-3.568196E-02
1.788923E-01
9.944445E-02
1.641838E-01
6.991808E-02
3.058404E-02
1.102703E-01
-2.437809E-02
-4.733960E-02
-4.778154E-02
-5.682752E-02
-3.781853E-02
7.353630E-02
1.434669E-01
1.852332E-01
2.565679E-01
3.242551E-01
4.643446E-02
1.888403E-02
4.192809E-01
-1.085820E-02
2.592793E-01
1.780343E-01
2.162355E-01
1.371467E-01
7.644879E-02
1.998174E-01
2.759414E-02
-2.291781E-02
-3.568196E-02
-3.781853E-02
-1.701941E-02
1.291791E-01
2.032125E-01
2.515788E-01
3.024284E-01
3.991605E-01
8.927489E-02
4.370716E-02
4.792909E-01
4.478784E-01
1.160485E-02
3.242551E-01
2.565679E-01
1.852332E-01
2.959199E-01
1.434669E-01
7.353630E-02
2.822940E-01
4.643446E-02
1.888403E-02
-1.085820E-02
-1.701941E-02
-6.131784E-03
1.260773E-01
1.918372E-01
2.632379E-01
3.689896E-01
4.450147E-01
8.624113E-02
3.646796E-02
5.559710E-01
5.173471E-01
1.590972E-02
3.991605E-01
3.024284E-01
2.515788E-01
3.422279E-01
2.032125E-01
1.291791E-01
8.927489E-02
4.370716E-02
1.160485E-02
-6.131784E-03
4.334302E-03
1.689843E-01
2.166589E-01
3.235687E-01
4.339592E-01
3.784708E-01
5.214108E-01
1.162467E-01
6.069002E-02
5.654297E-01
6.251290E-01
2.783872E-02
4.450147E-01
4.478784E-01
3.689896E-01
2.632379E-01
4.192809E-01
1.918372E-01
1.260773E-01
8.624113E-02
3.646796E-02
1.590972E-02
4.334302E-03
4.334302E-03
1.621873E-01
2.625930E-01
3.483884E-01
4.954843E-01
4.329012E-01
5.830205E-01
9.793476E-02
4.775591E-02
6.295141E-01
6.709938E-01
1.590972E-02
5.214108E-01
4.339592E-01
5.173471E-01
3.784708E-01
3.235687E-01
4.792909E-01
2.166589E-01
1.689843E-01
1.162467E-01
6.069002E-02
2.783872E-02
4.334302E-03
-6.131784E-03
1.987569E-01
3.226164E-01
2.514879E-01
4.182714E-01
4.849452E-01
5.681495E-01
6.430411E-01
9.793476E-02
6.069002E-02
7.294022E-01
1.160485E-02
5.830205E-01
4.954843E-01
5.654297E-01
4.329012E-01
3.483884E-01
5.559710E-01
2.625930E-01
1.621873E-01
9.793476E-02
4.775591E-02
1.590972E-02
-6.131784E-03
-1.701941E-02
1.987569E-01
3.595945E-01
2.825888E-01
4.576274E-01
5.352814E-01
5.929657E-01
6.998672E-01
1.162467E-01
3.646796E-02
7.753209E-01
7.447486E-01
-1.085820E-02
6.430411E-01
5.681495E-01
4.849452E-01
6.295141E-01
4.182714E-01
3.226164E-01
6.251290E-01
2.514879E-01
1.987569E-01
9.793476E-02
6.069002E-02
1.160485E-02
-1.701941E-02
-3.781853E-02
1.621873E-01
2.514879E-01
3.306720E-01
4.247225E-01
5.225935E-01
6.423862E-01
7.246774E-01
8.624113E-02
4.370716E-02
8.274547E-01
7.917283E-01
-3.568196E-02
6.998672E-01
5.929657E-01
5.352814E-01
6.709938E-01
4.576274E-01
3.595945E-01
2.825888E-01
1.987569E-01
1.162467E-01
3.646796E-02
-1.085820E-02
-3.781853E-02
-5.682752E-02
1.689843E-01
2.625930E-01
3.595945E-01
4.247225E-01
5.672978E-01
7.024008E-01
6.294062E-01
7.845325E-01
8.927489E-02
1.888403E-02
8.285157E-01
8.727547E-01
-4.778154E-02
7.246774E-01
7.447486E-01
6.423862E-01
5.225935E-01
7.294022E-01
4.247225E-01
3.306720E-01
2.514879E-01
1.621873E-01
8.624113E-02
4.370716E-02
-3.568196E-02
-5.682752E-02
-9.478846E-02
1.260773E-01
2.166589E-01
3.226164E-01
4.576274E-01
5.672978E-01
7.374964E-01
6.627541E-01
8.179860E-01
4.643446E-02
-2.291781E-02
8.672379E-01
8.975642E-01
-9.212161E-02
7.845325E-01
7.024008E-01
7.917283E-01
6.294062E-01
5.672978E-01
7.753209E-01
4.247225E-01
3.595945E-01
2.625930E-01
1.689843E-01
8.927489E-02
1.888403E-02
-4.778154E-02
-9.478846E-02
-1.179830E-01
1.291791E-01
1.918372E-01
3.483884E-01
5.225935E-01
4.182714E-01
6.294062E-01
7.108296E-01
7.932265E-01
8.639039E-01
2.759414E-02
-4.733960E-02
9.284224E-01
-1.176187E-01
8.179860E-01
7.374964E-01
8.285157E-01
6.627541E-01
5.672978E-01
8.274547E-01
4.576274E-01
3.226164E-01
2.166589E-01
1.260773E-01
4.643446E-02
-2.291781E-02
-9.212161E-02
-1.179830E-01
-1.638517E-01
7.353630E-02
2.032125E-01
3.235687E-01
5.352814E-01
4.329012E-01
6.423862E-01
7.374964E-01
7.932265E-01
8.939956E-01
-2.437809E-02
-9.770045E-02
9.532342E-01
9.281877E-01
-1.656775E-01
8.639039E-01
7.932265E-01
7.108296E-01
8.672379E-01
6.294062E-01
5.225935E-01
8.727547E-01
4.182714E-01
3.483884E-01
1.918372E-01
1.291791E-01
2.759414E-02
-4.733960E-02
-1.176187E-01
-1.638517E-01
-2.045219E-01
7.644879E-02
2.632379E-01
1.434669E-01
3.784708E-01
4.849452E-01
5.929657E-01
7.024008E-01
8.179860E-01
8.939956E-01
-7.024529E-02
-1.208940E-01
9.728595E-01
9.455253E-01
-2.115972E-01
8.939956E-01
7.932265E-01
7.374964E-01
8.975642E-01
6.423862E-01
5.352814E-01
4.329012E-01
3.235687E-01
2.032125E-01
7.353630E-02
-2.437809E-02
-9.770045E-02
-1.656775E-01
-2.045219E-01
-2.564461E-01
3.058404E-02
2.515788E-01
1.371467E-01
3.689896E-01
4.954843E-01
5.681495E-01
7.246774E-01
8.639039E-01
7.845325E-01
9.281877E-01
-8.213401E-02
-1.867320E-01
9.653852E-01
9.872952E-01
-2.616954E-01
8.939956E-01
9.281877E-01
8.179860E-01
7.024008E-01
9.284224E-01
5.929657E-01
4.849452E-01
3.784708E-01
2.632379E-01
1.434669E-01
7.644879E-02
-7.024529E-02
-1.208940E-01
-2.115972E-01
-2.564461E-01
-3.065938E-01
6.991808E-02
-3.618940E-02
1.852332E-01
3.024284E-01
4.339592E-01
5.830205E-01
6.998672E-01
8.672379E-01
7.917283E-01
9.284224E-01
-1.531755E-01
-2.071247E-01
9.728595E-01
9.872952E-01
-3.216267E-01
9.281877E-01
8.639039E-01
9.455253E-01
7.845325E-01
7.246774E-01
9.532342E-01
5.681495E-01
4.954843E-01
3.689896E-01
2.515788E-01
1.371467E-01
3.058404E-02
-8.213401E-02
-1.867320E-01
-2.616954E-01
-3.065938E-01
-3.525536E-01
3.941476E-02
-7.042413E-02
1.780343E-01
2.565679E-01
4.450147E-01
6.430411E-01
5.214108E-01
7.447486E-01
8.285157E-01
8.975642E-01
9.532342E-01
-1.794861E-01
-2.670540E-01
-3.549718E-01
9.284224E-01
8.672379E-01
9.653852E-01
7.917283E-01
6.998672E-01
9.728595E-01
5.830205E-01
4.339592E-01
3.024284E-01
1.852332E-01
6.991808E-02
-3.618940E-02
-1.531755E-01
-2.071247E-01
-3.216267E-01
-3.525536E-01
-4.185636E-01
9.944445E-02
-3.415401E-02
-1.426794E-01
2.592793E-01
3.991605E-01
6.295141E-01
5.173471E-01
7.294022E-01
8.274547E-01
8.727547E-01
-2.492786E-01
-3.301046E-01
-4.264945E-01
9.532342E-01
8.975642E-01
8.285157E-01
9.728595E-01
7.447486E-01
6.430411E-01
9.872952E-01
5.214108E-01
4.450147E-01
2.565679E-01
1.780343E-01
3.941476E-02
-7.042413E-02
-1.794861E-01
-2.670540E-01
-3.549718E-01
-4.185636E-01
-4.591594E-01
9.759116E-02
-9.407904E-02
-1.665229E-01
3.242551E-01
1.788923E-01
4.478784E-01
5.654297E-01
6.709938E-01
7.753209E-01
-2.961626E-01
-3.817055E-01
-4.687925E-01
8.727547E-01
8.274547E-01
9.872952E-01
7.294022E-01
6.295141E-01
5.173471E-01
3.991605E-01
2.592793E-01
9.944445E-02
-3.415401E-02
-1.426794E-01
-2.492786E-01
-3.301046E-01
-4.264945E-01
-4.591594E-01
-5.240314E-01
3.767248E-02
-1.039426E-01
-2.502137E-01
2.959199E-01
1.641838E-01
4.192809E-01
5.559710E-01
6.251290E-01
-3.655389E-01
-4.488708E-01
-5.305241E-01
7.753209E-01
6.709938E-01
5.654297E-01
4.478784E-01
3.242551E-01
1.788923E-01
9.759116E-02
-9.407904E-02
-1.665229E-01
-2.961626E-01
-3.817055E-01
-4.687925E-01
-5.240314E-01
-5.737597E-01
8.280499E-02
-4.390657E-02
-1.908686E-01
-2.646958E-01
2.162355E-01
3.422279E-01
4.792909E-01
-4.304074E-01
-4.857316E-01
-5.866548E-01
6.251290E-01
5.559710E-01
4.192809E-01
2.959199E-01
1.641838E-01
3.767248E-02
-1.039426E-01
-2.502137E-01
-3.655389E-01
-4.488708E-01
-5.305241E-01
-5.737597E-01
-6.348748E-01
4.530965E-02
-8.273784E-02
-2.139842E-01
-3.295580E-01
1.998174E-01
2.822940E-01
-4.513464E-01
-5.617841E-01
-6.412772E-01
4.792909E-01
3.422279E-01
2.162355E-01
8.280499E-02
-4.390657E-02
-1.908686E-01
-2.646958E-01
-4.304074E-01
-4.857316E-01
-5.866548E-01
-6.348748E-01
-6.867253E-01
1.102703E-01
-3.865414E-02
-1.658895E-01
-2.948836E-01
-4.053912E-01
-5.315794E-01
-5.866929E-01
-7.012174E-01
2.822940E-01
1.998174E-01
4.530965E-02
-8.273784E-02
-2.139842E-01
-3.295580E-01
-4.513464E-01
-5.617841E-01
-6.412772E-01
-6.867253E-01
-7.309969E-01
-1.035315E-01
-1.867681E-01
-3.355693E-01
-4.488086E-01
-5.595851E-01
-6.466270E-01
-7.300488E-01
1.102703E-01
-3.865414E-02
-1.658895E-01
-2.948836E-01
-4.053912E-01
-5.315794E-01
-5.866929E-01
-7.012174E-01
-7.309969E-01
-7.878363E-01
-2.755485E-01
-4.136611E-01
-5.227695E-01
-6.276911E-01
-7.051720E-01
-7.913793E-01
-1.035315E-01
-1.867681E-01
-3.355693E-01
-4.488086E-01
-5.595851E-01
-6.466270E-01
-7.300488E-01
-7.878363E-01
-8.193872E-01
-4.736060E-01
-5.449311E-01
-6.653756E-01
-7.465704E-01
-8.200181E-01
-2.755485E-01
-4.136611E-01
-5.227695E-01
-6.276911E-01
-7.051720E-01
-7.913793E-01
-8.193872E-01
-8.652786E-01
-6.194312E-01
-7.257099E-01
-8.000860E-01
-8.649698E-01
-4.736060E-01
-5.449311E-01
-6.653756E-01
-7.465704E-01
-8.200181E-01
-8.652786E-01
-8.976283E-01
-7.716009E-01
-8.201605E-01
-8.939264E-01
-6.194312E-01
-7.257099E-01
-8.000860E-01
-8.649698E-01
-8.976283E-01
-9.307249E-01
-8.690491E-01
-9.273319E-01
-7.716009E-01
-8.201605E-01
-8.939264E-01
-9.307249E-01
-9.556696E-01
-9.522088E-01
-8.690491E-01
-9.273319E-01
-9.556696E-01
-9.706273E-01
-9.522088E-01
-9.706273E-01
-9.865685E-01
-9.865685E-01
