# vtk DataFile Version 2.0
Grille
ASCII
DATASET POLYDATA
POINTS 481 float
0.000000E+00 8.750000E-01 -5.230298E-01
6.250000E-02 8.750000E-01 -5.119384E-01
1.250000E-01 8.750000E-01 -4.831461E-01
1.250000E-01 9.375000E-01 -5.119384E-01
1.250000E-01 1.000000E+00 -5.230298E-01
6.250000E-02 1.000000E+00 -5.542123E-01
0.000000E+00 1.000000E+00 -5.664773E-01
0.000000E+00 9.375000E-01 -5.542123E-01
3.750000E-02 9.125000E-01 -5.393872E-01
8.125000E-02 9.187500E-01 -5.287948E-01
8.750000E-02 9.625000E-01 -5.393872E-01
4.375000E-02 9.562500E-01 -5.543272E-01
1.875000E-01 8.750000E-01 -4.339550E-01
2.500000E-01 8.750000E-01 -3.696045E-01
2.500000E-01 9.375000E-01 -3.916819E-01
2.500000E-01 1.000000E+00 -4.001051E-01
1.875000E-01 1.000000E+00 -4.696643E-01
1.625000E-01 9.125000E-01 -4.738223E-01
2.062500E-01 9.187500E-01 -4.355523E-01
2.125000E-01 9.625000E-01 -4.399522E-01
1.687500E-01 9.562500E-01 -4.826204E-01
0.000000E+00 7.500000E-01 -4.001051E-01
6.250000E-02 7.500000E-01 -3.916819E-01
1.250000E-01 7.500000E-01 -3.696045E-01
1.250000E-01 8.125000E-01 -4.339550E-01
0.000000E+00 8.125000E-01 -4.696643E-01
3.750000E-02 7.875000E-01 -4.399522E-01
8.125000E-02 7.937500E-01 -4.355523E-01
8.750000E-02 8.375000E-01 -4.738223E-01
4.375000E-02 8.312500E-01 -4.826204E-01
1.875000E-01 7.500000E-01 -3.321001E-01
2.500000E-01 7.500000E-01 -2.827088E-01
2.500000E-01 8.125000E-01 -3.321001E-01
1.625000E-01 7.875000E-01 -3.865591E-01
2.062500E-01 7.937500E-01 -3.587259E-01
2.125000E-01 8.375000E-01 -3.865591E-01
1.687500E-01 8.312500E-01 -4.202077E-01
3.125000E-01 8.750000E-01 -2.898371E-01
3.750000E-01 8.750000E-01 -1.997289E-01
3.750000E-01 9.375000E-01 -2.117458E-01
3.750000E-01 1.000000E+00 -2.162262E-01
3.125000E-01 1.000000E+00 -3.136090E-01
2.875000E-01 9.125000E-01 -3.360666E-01
3.312500E-01 9.187500E-01 -2.759510E-01
3.375000E-01 9.625000E-01 -2.735069E-01
2.937500E-01 9.562500E-01 -3.374257E-01
4.375000E-01 8.750000E-01 -1.015279E-01
5.000000E-01 8.750000E-01 6.216437E-04
5.000000E-01 9.375000E-01 4.903839E-04
5.000000E-01 1.000000E+00 6.333983E-04
4.375000E-01 1.000000E+00 -1.097536E-01
4.125000E-01 9.125000E-01 -1.470883E-01
4.562500E-01 9.187500E-01 -7.427615E-02
4.625000E-01 9.625000E-01 -6.536280E-02
4.187500E-01 9.562500E-01 -1.408060E-01
3.125000E-01 7.500000E-01 -2.218662E-01
3.750000E-01 7.500000E-01 -1.526888E-01
3.750000E-01 8.125000E-01 -1.796090E-01
2.875000E-01 7.875000E-01 -2.742235E-01
3.312500E-01 7.937500E-01 -2.272025E-01
3.375000E-01 8.375000E-01 -2.403705E-01
2.937500E-01 8.312500E-01 -2.937399E-01
4.375000E-01 7.500000E-01 -7.777510E-02
5.000000E-01 7.500000E-01 6.548322E-04
5.000000E-01 8.125000E-01 2.991935E-04
4.125000E-01 7.875000E-01 -1.200620E-01
4.562500E-01 7.937500E-01 -6.101398E-02
4.625000E-01 8.375000E-01 -5.751659E-02
4.187500E-01 8.312500E-01 -1.224806E-01
0.000000E+00 6.250000E-01 -2.162262E-01
6.250000E-02 6.250000E-01 -2.117458E-01
1.250000E-01 6.250000E-01 -1.997289E-01
1.250000E-01 6.875000E-01 -2.898371E-01
0.000000E+00 6.875000E-01 -3.136090E-01
3.750000E-02 6.625000E-01 -2.735069E-01
8.125000E-02 6.687500E-01 -2.759510E-01
8.750000E-02 7.125000E-01 -3.360666E-01
4.375000E-02 7.062500E-01 -3.374257E-01
1.875000E-01 6.250000E-01 -1.796090E-01
2.500000E-01 6.250000E-01 -1.526888E-01
2.500000E-01 6.875000E-01 -2.218662E-01
1.625000E-01 6.625000E-01 -2.403705E-01
2.062500E-01 6.687500E-01 -2.272025E-01
2.125000E-01 7.125000E-01 -2.742235E-01
1.687500E-01 7.062500E-01 -2.937399E-01
0.000000E+00 5.000000E-01 6.333983E-04
6.250000E-02 5.000000E-01 4.903839E-04
1.250000E-01 5.000000E-01 6.216437E-04
1.250000E-01 5.625000E-01 -1.015279E-01
0.000000E+00 5.625000E-01 -1.097536E-01
3.750000E-02 5.375000E-01 -6.536280E-02
8.125000E-02 5.437500E-01 -7.427615E-02
8.750000E-02 5.875000E-01 -1.470883E-01
4.375000E-02 5.812500E-01 -1.408060E-01
1.875000E-01 5.000000E-01 2.991935E-04
2.500000E-01 5.000000E-01 6.548322E-04
2.500000E-01 5.625000E-01 -7.777510E-02
1.625000E-01 5.375000E-01 -5.751659E-02
2.062500E-01 5.437500E-01 -6.101398E-02
2.125000E-01 5.875000E-01 -1.200620E-01
1.687500E-01 5.812500E-01 -1.224806E-01
3.125000E-01 6.250000E-01 -1.200292E-01
3.750000E-01 6.250000E-01 -8.231115E-02
3.750000E-01 6.875000E-01 -1.200292E-01
2.875000E-01 6.625000E-01 -1.705416E-01
3.312500E-01 6.687500E-01 -1.437705E-01
3.375000E-01 7.125000E-01 -1.705416E-01
2.937500E-01 7.062500E-01 -2.052412E-01
4.375000E-01 6.250000E-01 -4.208845E-02
5.000000E-01 6.250000E-01 6.822775E-04
5.000000E-01 6.875000E-01 1.632237E-04
4.125000E-01 6.625000E-01 -7.466169E-02
4.562500E-01 6.687500E-01 -3.836608E-02
4.625000E-01 7.125000E-01 -4.081433E-02
4.187500E-01 7.062500E-01 -8.541173E-02
3.125000E-01 5.000000E-01 1.632237E-04
3.750000E-01 5.000000E-01 6.822775E-04
3.750000E-01 5.625000E-01 -4.208845E-02
2.875000E-01 5.375000E-01 -4.081433E-02
3.312500E-01 5.437500E-01 -3.836608E-02
3.375000E-01 5.875000E-01 -7.466169E-02
2.937500E-01 5.812500E-01 -8.541173E-02
4.375000E-01 5.000000E-01 9.216810E-05
5.000000E-01 5.000000E-01 6.927334E-04
5.000000E-01 5.625000E-01 9.216810E-05
4.125000E-01 5.375000E-01 -1.780736E-02
4.562500E-01 5.437500E-01 -9.788746E-03
4.625000E-01 5.875000E-01 -1.780736E-02
4.187500E-01 5.812500E-01 -3.524970E-02
5.625000E-01 8.750000E-01 1.023073E-01
6.250000E-01 8.750000E-01 2.009472E-01
6.250000E-01 9.375000E-01 2.127189E-01
6.250000E-01 1.000000E+00 2.174627E-01
5.625000E-01 1.000000E+00 1.108761E-01
5.375000E-01 9.125000E-01 6.434945E-02
5.812500E-01 9.187500E-01 1.387739E-01
5.875000E-01 9.625000E-01 1.527983E-01
5.437500E-01 9.562500E-01 7.731520E-02
6.875000E-01 8.750000E-01 2.906364E-01
7.500000E-01 8.750000E-01 3.707483E-01
7.500000E-01 9.375000E-01 3.926267E-01
7.500000E-01 1.000000E+00 4.012474E-01
6.875000E-01 1.000000E+00 3.146912E-01
6.625000E-01 9.125000E-01 2.660583E-01
7.062500E-01 9.187500E-01 3.307634E-01
7.125000E-01 9.625000E-01 3.477620E-01
6.687500E-01 9.562500E-01 2.837321E-01
5.625000E-01 7.500000E-01 7.823358E-02
6.250000E-01 7.500000E-01 1.539754E-01
6.250000E-01 8.125000E-01 1.802349E-01
5.375000E-01 7.875000E-01 5.245265E-02
5.812500E-01 7.937500E-01 1.145376E-01
5.875000E-01 8.375000E-01 1.341652E-01
5.437500E-01 8.312500E-01 6.749708E-02
6.875000E-01 7.500000E-01 2.224089E-01
7.500000E-01 7.500000E-01 2.839327E-01
7.500000E-01 8.125000E-01 3.328047E-01
6.625000E-01 7.875000E-01 2.170565E-01
7.062500E-01 7.937500E-01 2.727262E-01
7.125000E-01 8.375000E-01 3.054930E-01
6.687500E-01 8.312500E-01 2.472709E-01
8.125000E-01 8.750000E-01 4.347850E-01
8.750000E-01 8.750000E-01 4.841712E-01
8.750000E-01 9.375000E-01 5.128104E-01
8.750000E-01 1.000000E+00 5.239876E-01
8.125000E-01 1.000000E+00 4.706534E-01
7.875000E-01 9.125000E-01 4.273255E-01
8.312500E-01 9.187500E-01 4.724562E-01
8.375000E-01 9.625000E-01 4.898354E-01
7.937500E-01 9.562500E-01 4.470128E-01
9.375000E-01 8.750000E-01 5.128104E-01
1.000000E+00 8.750000E-01 5.239876E-01
1.000000E+00 9.375000E-01 5.549710E-01
1.000000E+00 1.000000E+00 5.668004E-01
9.375000E-01 1.000000E+00 5.549710E-01
9.125000E-01 9.125000E-01 5.235891E-01
9.562500E-01 9.187500E-01 5.422707E-01
9.625000E-01 9.625000E-01 5.573350E-01
9.187500E-01 9.562500E-01 5.422707E-01
8.125000E-01 7.500000E-01 3.328047E-01
8.750000E-01 7.500000E-01 3.707483E-01
8.750000E-01 8.125000E-01 4.347850E-01
7.875000E-01 7.875000E-01 3.486914E-01
8.312500E-01 7.937500E-01 3.894715E-01
8.375000E-01 8.375000E-01 4.303836E-01
7.937500E-01 8.312500E-01 3.894715E-01
9.375000E-01 7.500000E-01 3.926267E-01
1.000000E+00 7.500000E-01 4.012474E-01
1.000000E+00 8.125000E-01 4.706534E-01
9.125000E-01 7.875000E-01 4.273255E-01
9.562500E-01 7.937500E-01 4.470128E-01
9.625000E-01 8.375000E-01 4.898354E-01
9.187500E-01 8.312500E-01 4.724562E-01
5.625000E-01 6.250000E-01 4.234284E-02
6.250000E-01 6.250000E-01 8.365432E-02
6.250000E-01 6.875000E-01 1.204108E-01
5.375000E-01 6.625000E-01 3.266685E-02
5.812500E-01 6.687500E-01 7.296033E-02
5.875000E-01 7.125000E-01 9.520543E-02
5.437500E-01 7.062500E-01 4.750070E-02
6.875000E-01 6.250000E-01 1.204108E-01
7.500000E-01 6.250000E-01 1.539754E-01
7.500000E-01 6.875000E-01 2.224089E-01
6.625000E-01 6.625000E-01 1.351034E-01
7.062500E-01 6.687500E-01 1.732609E-01
7.125000E-01 7.125000E-01 2.168106E-01
6.687500E-01 7.062500E-01 1.732609E-01
5.625000E-01 5.000000E-01 9.216810E-05
6.250000E-01 5.000000E-01 6.822775E-04
6.250000E-01 5.625000E-01 4.234284E-02
5.375000E-01 5.375000E-01 7.996128E-03
5.812500E-01 5.437500E-01 2.036341E-02
5.875000E-01 5.875000E-01 4.184172E-02
5.437500E-01 5.812500E-01 2.036341E-02
6.875000E-01 5.000000E-01 1.632237E-04
7.500000E-01 5.000000E-01 6.548322E-04
7.500000E-01 5.625000E-01 7.823358E-02
6.625000E-01 5.375000E-01 3.266685E-02
7.062500E-01 5.437500E-01 4.750070E-02
7.125000E-01 5.875000E-01 9.520543E-02
6.687500E-01 5.812500E-01 7.296033E-02
8.125000E-01 6.250000E-01 1.802349E-01
8.750000E-01 6.250000E-01 2.009472E-01
8.750000E-01 6.875000E-01 2.906364E-01
7.875000E-01 6.625000E-01 2.170565E-01
8.312500E-01 6.687500E-01 2.472709E-01
8.375000E-01 7.125000E-01 3.054930E-01
7.937500E-01 7.062500E-01 2.727262E-01
9.375000E-01 6.250000E-01 2.127189E-01
1.000000E+00 6.250000E-01 2.174627E-01
1.000000E+00 6.875000E-01 3.146912E-01
9.125000E-01 6.625000E-01 2.660583E-01
9.562500E-01 6.687500E-01 2.837321E-01
9.625000E-01 7.125000E-01 3.477620E-01
9.187500E-01 7.062500E-01 3.307634E-01
8.125000E-01 5.000000E-01 2.991935E-04
8.750000E-01 5.000000E-01 6.216437E-04
8.750000E-01 5.625000E-01 1.023073E-01
7.875000E-01 5.375000E-01 5.245265E-02
8.312500E-01 5.437500E-01 6.749708E-02
8.375000E-01 5.875000E-01 1.341652E-01
7.937500E-01 5.812500E-01 1.145376E-01
9.375000E-01 5.000000E-01 4.903839E-04
1.000000E+00 5.000000E-01 6.333983E-04
1.000000E+00 5.625000E-01 1.108761E-01
9.125000E-01 5.375000E-01 6.434945E-02
9.562500E-01 5.437500E-01 7.731520E-02
9.625000E-01 5.875000E-01 1.527983E-01
9.187500E-01 5.812500E-01 1.387739E-01
0.000000E+00 3.750000E-01 2.174627E-01
6.250000E-02 3.750000E-01 2.127189E-01
[...]
CELL_DATA 896
SCALARS sol float 1
LOOKUP_TABLE default
-5.247851E-01
-5.267068E-01
-5.388764E-01
-5.058629E-01
-5.408364E-01
-5.079598E-01
-5.493089E-01
-4.917715E-01
-4.894604E-01
-5.408364E-01
-5.079598E-01
-4.896356E-01
-5.583390E-01
-4.640790E-01
-4.639983E-01
-5.493089E-01
-5.267068E-01
-4.896356E-01
-4.636411E-01
-5.583390E-01
-4.527083E-01
-4.365739E-01
-4.477765E-01
-5.388764E-01
-5.247851E-01
-4.636411E-01
-4.894604E-01
-4.457696E-01
-4.223955E-01
-4.105797E-01
-4.130373E-01
-5.058629E-01
-4.477765E-01
-4.457696E-01
-4.639983E-01
-4.135739E-01
-3.989462E-01
-3.764042E-01
-3.967062E-01
-4.917715E-01
-4.130373E-01
-4.135739E-01
-4.527083E-01
-3.884976E-01
-3.657843E-01
-3.503799E-01
-3.550580E-01
-3.627546E-01
-4.640790E-01
-3.989462E-01
-3.967062E-01
-3.884976E-01
-4.223955E-01
-3.591284E-01
-3.318361E-01
-3.081805E-01
-3.164811E-01
-3.318148E-01
-4.365739E-01
-3.657843E-01
-3.627546E-01
-3.591284E-01
-4.105797E-01
-3.245116E-01
-3.006182E-01
-3.177272E-01
-2.956278E-01
-2.677807E-01
-3.000212E-01
-3.318361E-01
-3.550580E-01
-3.318148E-01
-3.245116E-01
-3.764042E-01
-2.963441E-01
-2.551723E-01
-2.746491E-01
-2.537345E-01
-2.338263E-01
-2.650553E-01
-3.006182E-01
-3.177272E-01
-3.164811E-01
-3.000212E-01
-2.963441E-01
-3.503799E-01
-2.595995E-01
-2.291419E-01
-2.433122E-01
-2.537709E-01
-1.895927E-01
-2.410974E-01
-2.551723E-01
-2.746491E-01
-2.956278E-01
-2.650553E-01
-2.595995E-01
-3.081805E-01
-2.366054E-01
-1.861877E-01
-2.065695E-01
-2.157273E-01
-1.555953E-01
-1.665467E-01
-2.005858E-01
-2.291419E-01
-2.433122E-01
-2.537709E-01
-2.537345E-01
-2.410974E-01
-2.366054E-01
-2.677807E-01
-1.992163E-01
-1.494484E-01
-1.672728E-01
-1.865001E-01
-1.053075E-01
-1.207235E-01
-1.816989E-01
-1.861877E-01
-2.065695E-01
-2.157273E-01
-2.338263E-01
-2.005858E-01
-1.992163E-01
-1.731844E-01
-1.412458E-01
-1.076308E-01
-1.407172E-01
-1.507866E-01
-9.348166E-02
-5.816099E-02
-1.477532E-01
-1.494484E-01
-1.665467E-01
-1.672728E-01
-1.865001E-01
-1.895927E-01
-1.816989E-01
-1.731844E-01
-1.447804E-01
-9.384168E-02
-5.839412E-02
-1.011855E-01
-1.168420E-01
-4.638285E-02
-2.141301E-02
-1.193766E-01
-1.076308E-01
-1.412458E-01
-1.207235E-01
-1.407172E-01
-1.507866E-01
-1.555953E-01
-1.477532E-01
-1.447804E-01
-1.153703E-01
-8.033706E-02
-5.280760E-02
-2.438804E-02
-8.628370E-02
-1.052919E-01
2.614633E-02
-9.336753E-02
-5.839412E-02
-9.384168E-02
-9.348166E-02
-1.011855E-01
-1.168420E-01
-1.053075E-01
-1.193766E-01
-1.153703E-01
-9.233401E-02
-3.941046E-02
-1.886525E-02
2.182049E-02
-4.604475E-02
-6.800039E-02
6.294156E-02
4.738501E-02
-6.614650E-02
-2.438804E-02
-5.280760E-02
-8.033706E-02
-4.638285E-02
-8.628370E-02
-1.052919E-01
-5.816099E-02
-9.336753E-02
-9.233401E-02
-6.635377E-02
-2.001998E-02
2.280597E-02
5.575947E-02
-3.931153E-02
-5.486405E-02
1.136632E-01
9.347951E-02
-5.170541E-02
2.182049E-02
-1.886525E-02
-3.941046E-02
-2.141301E-02
-4.604475E-02
-6.800039E-02
-6.614650E-02
-6.635377E-02
-5.321644E-02
1.780222E-02
5.680868E-02
4.008297E-02
1.018102E-01
-1.333209E-02
-2.633906E-02
1.229625E-01
1.603790E-01
-2.659075E-02
5.575947E-02
4.738501E-02
2.280597E-02
-2.001998E-02
2.614633E-02
-3.931153E-02
-5.486405E-02
-5.170541E-02
-5.321644E-02
-3.171517E-02
4.378035E-02
1.013232E-01
7.816244E-02
1.473428E-01
1.610625E-02
-1.250686E-02
1.680970E-01
1.943266E-01
-1.973785E-02
1.018102E-01
5.680868E-02
9.347951E-02
4.008297E-02
1.780222E-02
6.294156E-02
-1.333209E-02
-2.633906E-02
-2.659075E-02
-3.171517E-02
-2.094860E-02
4.212971E-02
8.174127E-02
1.054000E-01
1.458066E-01
1.841466E-01
2.677693E-02
1.117078E-02
2.379712E-01
-5.677638E-03
1.473428E-01
1.013232E-01
1.229625E-01
7.816244E-02
4.378035E-02
1.136632E-01
1.610625E-02
-1.250686E-02
-1.973785E-02
-2.094860E-02
-9.167979E-03
7.364657E-02
1.155822E-01
1.429792E-01
1.717824E-01
2.265748E-01
5.104263E-02
2.523066E-02
2.719620E-01
2.541697E-01
7.045953E-03
1.841466E-01
1.458066E-01
1.054000E-01
1.680970E-01
8.174127E-02
4.212971E-02
1.603790E-01
2.677693E-02
1.117078E-02
-5.677638E-03
-9.167979E-03
-3.001282E-03
7.188882E-02
1.091382E-01
1.495826E-01
2.094843E-01
2.525473E-01
4.932334E-02
2.112951E-02
3.153951E-01
2.935179E-01
9.483903E-03
2.265748E-01
1.717824E-01
1.429792E-01
1.943266E-01
1.155822E-01
7.364657E-02
5.104263E-02
2.523066E-02
7.045953E-03
-3.001282E-03
2.927010E-03
9.619219E-02
1.231972E-01
1.837556E-01
2.462848E-01
2.148541E-01
2.958193E-01
6.631916E-02
3.484932E-02
3.207525E-01
3.545669E-01
1.624098E-02
2.525473E-01
2.541697E-01
2.094843E-01
1.495826E-01
2.379712E-01
1.091382E-01
7.188882E-02
4.932334E-02
2.112951E-02
9.483903E-03
2.927010E-03
2.927010E-03
9.234182E-02
1.492157E-01
1.978136E-01
2.811334E-01
2.456845E-01
3.307160E-01
5.594629E-02
2.752285E-02
3.570507E-01
3.805454E-01
9.483903E-03
2.958193E-01
2.462848E-01
2.935179E-01
2.148541E-01
1.837556E-01
2.719620E-01
1.231972E-01
9.619219E-02
6.631916E-02
3.484932E-02
1.624098E-02
2.927010E-03
-3.001282E-03
1.130562E-01
1.832151E-01
1.429250E-01
2.373972E-01
2.751634E-01
3.222926E-01
3.647128E-01
5.594629E-02
3.484932E-02
4.136289E-01
7.045953E-03
3.307160E-01
2.811334E-01
3.207525E-01
2.456845E-01
1.978136E-01
3.153951E-01
1.492157E-01
9.234182E-02
5.594629E-02
2.752285E-02
9.483903E-03
-3.001282E-03
-9.167979E-03
1.130562E-01
2.041601E-01
1.605417E-01
2.596893E-01
3.036746E-01
3.363487E-01
3.969002E-01
6.631916E-02
2.112951E-02
4.396379E-01
4.223216E-01
-5.677638E-03
3.647128E-01
3.222926E-01
2.751634E-01
3.570507E-01
2.373972E-01
1.832151E-01
3.545669E-01
1.429250E-01
1.130562E-01
5.594629E-02
3.484932E-02
7.045953E-03
-9.167979E-03
-2.094860E-02
9.234182E-02
1.429250E-01
1.877775E-01
2.410508E-01
2.964879E-01
3.643415E-01
4.109530E-01
4.932334E-02
2.523066E-02
4.691672E-01
4.489315E-01
-1.973785E-02
3.969002E-01
3.363487E-01
3.036746E-01
3.805454E-01
2.596893E-01
2.041601E-01
1.605417E-01
1.130562E-01
6.631916E-02
2.112951E-02
-5.677638E-03
-2.094860E-02
-3.171517E-02
9.619219E-02
1.492157E-01
2.041601E-01
2.410508E-01
3.218096E-01
3.983350E-01
3.569892E-01
4.448556E-01
5.104263E-02
1.117078E-02
4.697681E-01
4.948255E-01
-2.659075E-02
4.109530E-01
4.223216E-01
3.643415E-01
2.964879E-01
4.136289E-01
2.410508E-01
1.877775E-01
1.429250E-01
9.234182E-02
4.932334E-02
2.523066E-02
-1.973785E-02
-3.171517E-02
-5.321644E-02
7.188882E-02
1.231972E-01
1.832151E-01
2.596893E-01
3.218096E-01
4.182134E-01
3.758782E-01
4.638041E-01
2.677693E-02
-1.250686E-02
4.917007E-01
5.088778E-01
-5.170541E-02
4.448556E-01
3.983350E-01
4.489315E-01
3.569892E-01
3.218096E-01
4.396379E-01
2.410508E-01
2.041601E-01
1.492157E-01
9.619219E-02
5.104263E-02
1.117078E-02
-2.659075E-02
-5.321644E-02
-6.635377E-02
7.364657E-02
1.091382E-01
1.978136E-01
2.964879E-01
2.373972E-01
3.569892E-01
4.031089E-01
4.497800E-01
4.898126E-01
1.610625E-02
-2.633906E-02
5.263562E-01
-6.614650E-02
4.638041E-01
4.182134E-01
4.697681E-01
3.758782E-01
3.218096E-01
4.691672E-01
2.596893E-01
1.832151E-01
1.231972E-01
7.188882E-02
2.677693E-02
-1.250686E-02
-5.170541E-02
-6.635377E-02
-9.233401E-02
4.212971E-02
1.155822E-01
1.837556E-01
3.036746E-01
2.456845E-01
3.643415E-01
4.182134E-01
4.497800E-01
5.068569E-01
-1.333209E-02
-5.486405E-02
5.404098E-01
5.262234E-01
-9.336753E-02
4.898126E-01
4.497800E-01
4.031089E-01
4.917007E-01
3.569892E-01
2.964879E-01
4.948255E-01
2.373972E-01
1.978136E-01
1.091382E-01
7.364657E-02
1.610625E-02
-2.633906E-02
-6.614650E-02
-9.233401E-02
-1.153703E-01
4.378035E-02
1.495826E-01
8.174127E-02
2.148541E-01
2.751634E-01
3.363487E-01
3.983350E-01
4.638041E-01
5.068569E-01
-3.931153E-02
-6.800039E-02
5.515256E-01
5.360435E-01
-1.193766E-01
5.068569E-01
4.497800E-01
4.182134E-01
5.088778E-01
3.643415E-01
3.036746E-01
2.456845E-01
1.837556E-01
1.155822E-01
4.212971E-02
-1.333209E-02
-5.486405E-02
-9.336753E-02
-1.153703E-01
-1.447804E-01
1.780222E-02
1.429792E-01
7.816244E-02
2.094843E-01
2.811334E-01
3.222926E-01
4.109530E-01
4.898126E-01
4.448556E-01
5.262234E-01
-4.604475E-02
-1.052919E-01
5.472921E-01
5.597021E-01
-1.477532E-01
5.068569E-01
5.262234E-01
4.638041E-01
3.983350E-01
5.263562E-01
3.363487E-01
2.751634E-01
2.148541E-01
1.495826E-01
8.174127E-02
4.378035E-02
-3.931153E-02
-6.800039E-02
-1.193766E-01
-1.447804E-01
-1.731844E-01
4.008297E-02
-2.001998E-02
1.054000E-01
1.717824E-01
2.462848E-01
3.307160E-01
3.969002E-01
4.917007E-01
4.489315E-01
5.263562E-01
-8.628370E-02
-1.168420E-01
5.515256E-01
5.597021E-01
-1.816989E-01
5.262234E-01
4.898126E-01
5.360435E-01
4.448556E-01
4.109530E-01
5.404098E-01
3.222926E-01
2.811334E-01
2.094843E-01
1.429792E-01
7.816244E-02
1.780222E-02
-4.604475E-02
-1.052919E-01
-1.477532E-01
-1.731844E-01
-1.992163E-01
2.280597E-02
-3.941046E-02
1.013232E-01
1.458066E-01
2.525473E-01
3.647128E-01
2.958193E-01
4.223216E-01
4.697681E-01
5.088778E-01
5.404098E-01
-1.011855E-01
-1.507866E-01
-2.005858E-01
5.263562E-01
4.917007E-01
5.472921E-01
4.489315E-01
3.969002E-01
5.515256E-01
3.307160E-01
2.462848E-01
1.717824E-01
1.054000E-01
4.008297E-02
-2.001998E-02
-8.628370E-02
-1.168420E-01
-1.816989E-01
-1.992163E-01
-2.366054E-01
5.680868E-02
-1.886525E-02
-8.033706E-02
1.473428E-01
2.265748E-01
3.570507E-01
2.935179E-01
4.136289E-01
4.691672E-01
4.948255E-01
-1.407172E-01
-1.865001E-01
-2.410974E-01
5.404098E-01
5.088778E-01
4.697681E-01
5.515256E-01
4.223216E-01
3.647128E-01
5.597021E-01
2.958193E-01
2.525473E-01
1.458066E-01
1.013232E-01
2.280597E-02
-3.941046E-02
-1.011855E-01
-1.507866E-01
-2.005858E-01
-2.366054E-01
-2.595995E-01
5.575947E-02
-5.280760E-02
-9.384168E-02
1.841466E-01
1.018102E-01
2.541697E-01
3.207525E-01
3.805454E-01
4.396379E-01
-1.672728E-01
-2.157273E-01
-2.650553E-01
4.948255E-01
4.691672E-01
5.597021E-01
4.136289E-01
3.570507E-01
2.935179E-01
2.265748E-01
1.473428E-01
5.680868E-02
-1.886525E-02
-8.033706E-02
-1.407172E-01
-1.865001E-01
-2.410974E-01
-2.595995E-01
-2.963441E-01
2.182049E-02
-5.839412E-02
-1.412458E-01
1.680970E-01
9.347951E-02
2.379712E-01
3.153951E-01
3.545669E-01
-2.065695E-01
-2.537709E-01
-3.000212E-01
4.396379E-01
3.805454E-01
3.207525E-01
2.541697E-01
1.841466E-01
1.018102E-01
5.575947E-02
-5.280760E-02
-9.384168E-02
-1.672728E-01
-2.157273E-01
-2.650553E-01
-2.963441E-01
-3.245116E-01
4.738501E-02
-2.438804E-02
-1.076308E-01
-1.494484E-01
1.229625E-01
1.943266E-01
2.719620E-01
-2.433122E-01
-2.746491E-01
-3.318148E-01
3.545669E-01
3.153951E-01
2.379712E-01
1.680970E-01
9.347951E-02
2.182049E-02
-5.839412E-02
-1.412458E-01
-2.065695E-01
-2.537709E-01
-3.000212E-01
-3.245116E-01
-3.591284E-01
2.614633E-02
-4.638285E-02
-1.207235E-01
-1.861877E-01
1.136632E-01
1.603790E-01
-2.551723E-01
-3.177272E-01
-3.627546E-01
2.719620E-01
1.943266E-01
1.229625E-01
4.738501E-02
-2.438804E-02
-1.076308E-01
-1.494484E-01
-2.433122E-01
-2.746491E-01
-3.318148E-01
-3.591284E-01
-3.884976E-01
6.294156E-02
-2.141301E-02
-9.348166E-02
-1.665467E-01
-2.291419E-01
-3.006182E-01
-3.318361E-01
-3.967062E-01
1.603790E-01
1.136632E-01
2.614633E-02
-4.638285E-02
-1.207235E-01
-1.861877E-01
-2.551723E-01
-3.177272E-01
-3.627546E-01
-3.884976E-01
-4.135739E-01
-5.816099E-02
-1.053075E-01
-1.895927E-01
-2.537345E-01
-3.164811E-01
-3.657843E-01
-4.130373E-01
6.294156E-02
-2.141301E-02
-9.348166E-02
-1.665467E-01
-2.291419E-01
-3.006182E-01
-3.318361E-01
-3.967062E-01
-4.135739E-01
-4.457696E-01
-1.555953E-01
-2.338263E-01
-2.956278E-01
-3.550580E-01
-3.989462E-01
-4.477765E-01
-5.816099E-02
-1.053075E-01
-1.895927E-01
-2.537345E-01
-3.164811E-01
-3.657843E-01
-4.130373E-01
-4.457696E-01
-4.636411E-01
-2.677807E-01
-3.081805E-01
-3.764042E-01
-4.223955E-01
-4.639983E-01
-1.555953E-01
-2.338263E-01
-2.956278E-01
-3.550580E-01
-3.989462E-01
-4.477765E-01
-4.636411E-01
-4.896356E-01
-3.503799E-01
-4.105797E-01
-4.527083E-01
-4.894604E-01
-2.677807E-01
-3.081805E-01
-3.764042E-01
-4.223955E-01
-4.639983E-01
-4.896356E-01
-5.079598E-01
-4.365739E-01
-4.640790E-01
-5.058629E-01
-3.503799E-01
-4.105797E-01
-4.527083E-01
-4.894604E-01
-5.079598E-01
-5.267068E-01
-4.917715E-01
-5.247851E-01
-4.365739E-01
-4.640790E-01
-5.058629E-01
-5.267068E-01
-5.408364E-01
-5.388764E-01
-4.917715E-01
-5.247851E-01
-5.408364E-01
-5.493089E-01
-5.388764E-01
-5.493089E-01
-5.583390E-01
-5.583390E-01
