# vtk DataFile Version 2.0
Grille
ASCII
DATASET POLYDATA
POINTS 481 float
0.000000E+00 8.750000E-01 -8.920128E-01
6.250000E-02 8.750000E-01 -8.731129E-01
1.250000E-01 8.750000E-01 -8.240450E-01
1.250000E-01 9.375000E-01 -8.731129E-01
1.250000E-01 1.000000E+00 -8.920128E-01
6.250000E-02 1.000000E+00 -9.451551E-01
0.000000E+00 1.000000E+00 -9.660557E-01
0.000000E+00 9.375000E-01 -9.451551E-01
3.750000E-02 9.125000E-01 -9.198904E-01
8.125000E-02 9.187500E-01 -9.018387E-01
8.750000E-02 9.625000E-01 -9.198904E-01
4.375000E-02 9.562500E-01 -9.453512E-01
1.875000E-01 8.750000E-01 -7.402149E-01
2.500000E-01 8.750000E-01 -6.305489E-01
2.500000E-01 9.375000E-01 -6.681732E-01
2.500000E-01 1.000000E+00 -6.825256E-01
1.875000E-01 1.000000E+00 -8.010698E-01
1.625000E-01 9.125000E-01 -8.081563E-01
2.062500E-01 9.187500E-01 -7.429361E-01
2.125000E-01 9.625000E-01 -7.504345E-01
1.687500E-01 9.562500E-01 -8.231501E-01
0.000000E+00 7.500000E-01 -6.825256E-01
6.250000E-02 7.500000E-01 -6.681732E-01
1.250000E-01 7.500000E-01 -6.305489E-01
1.250000E-01 8.125000E-01 -7.402149E-01
0.000000E+00 8.125000E-01 -8.010698E-01
3.750000E-02 7.875000E-01 -7.504345E-01
8.125000E-02 7.937500E-01 -7.429361E-01
8.750000E-02 8.375000E-01 -8.081563E-01
4.375000E-02 8.312500E-01 -8.231501E-01
1.875000E-01 7.500000E-01 -5.666346E-01
2.500000E-01 7.500000E-01 -4.824619E-01
2.500000E-01 8.125000E-01 -5.666346E-01
1.625000E-01 7.875000E-01 -6.594434E-01
2.062500E-01 7.937500E-01 -6.120093E-01
2.125000E-01 8.375000E-01 -6.594434E-01
1.687500E-01 8.312500E-01 -7.167878E-01
3.125000E-01 8.750000E-01 -4.946104E-01
3.750000E-01 8.750000E-01 -3.410486E-01
3.750000E-01 9.375000E-01 -3.615275E-01
3.750000E-01 1.000000E+00 -3.691604E-01
3.125000E-01 1.000000E+00 -5.351218E-01
2.875000E-01 9.125000E-01 -5.733946E-01
3.312500E-01 9.187500E-01 -4.709447E-01
3.375000E-01 9.625000E-01 -4.667795E-01
2.937500E-01 9.562500E-01 -5.757109E-01
4.375000E-01 8.750000E-01 -1.736951E-01
5.000000E-01 8.750000E-01 3.871271E-04
5.000000E-01 9.375000E-01 1.638748E-04
5.000000E-01 1.000000E+00 4.099816E-04
4.375000E-01 1.000000E+00 -1.877130E-01
4.125000E-01 9.125000E-01 -2.513395E-01
4.562500E-01 9.187500E-01 -1.272520E-01
4.625000E-01 9.625000E-01 -1.120618E-01
4.187500E-01 9.562500E-01 -2.406333E-01
3.125000E-01 7.500000E-01 -3.787745E-01
3.750000E-01 7.500000E-01 -2.608824E-01
3.750000E-01 8.125000E-01 -3.067602E-01
2.875000E-01 7.875000E-01 -4.680019E-01
3.312500E-01 7.937500E-01 -3.878679E-01
3.375000E-01 8.375000E-01 -4.103095E-01
2.937500E-01 8.312500E-01 -5.012625E-01
4.375000E-01 7.500000E-01 -1.332150E-01
5.000000E-01 7.500000E-01 4.445470E-04
5.000000E-01 8.125000E-01 -1.619358E-04
4.125000E-01 7.875000E-01 -2.052810E-01
4.562500E-01 7.937500E-01 -1.046505E-01
4.625000E-01 8.375000E-01 -9.869097E-02
4.187500E-01 8.312500E-01 -2.094035E-01
0.000000E+00 6.250000E-01 -3.691604E-01
6.250000E-02 6.250000E-01 -3.615275E-01
1.250000E-01 6.250000E-01 -3.410486E-01
1.250000E-01 6.875000E-01 -4.946104E-01
0.000000E+00 6.875000E-01 -5.351218E-01
3.750000E-02 6.625000E-01 -4.667795E-01
8.125000E-02 6.687500E-01 -4.709447E-01
8.750000E-02 7.125000E-01 -5.733946E-01
4.375000E-02 7.062500E-01 -5.757109E-01
1.875000E-01 6.250000E-01 -3.067602E-01
2.500000E-01 6.250000E-01 -2.608824E-01
2.500000E-01 6.875000E-01 -3.787745E-01
1.625000E-01 6.625000E-01 -4.103095E-01
2.062500E-01 6.687500E-01 -3.878679E-01
2.125000E-01 7.125000E-01 -4.680019E-01
1.687500E-01 7.062500E-01 -5.012625E-01
0.000000E+00 5.000000E-01 4.099816E-04
6.250000E-02 5.000000E-01 1.638748E-04
1.250000E-01 5.000000E-01 3.871271E-04
1.250000E-01 5.625000E-01 -1.736951E-01
0.000000E+00 5.625000E-01 -1.877130E-01
3.750000E-02 5.375000E-01 -1.120618E-01
8.125000E-02 5.437500E-01 -1.272520E-01
8.750000E-02 5.875000E-01 -2.513395E-01
4.375000E-02 5.812500E-01 -2.406333E-01
1.875000E-01 5.000000E-01 -1.619358E-04
2.500000E-01 5.000000E-01 4.445470E-04
2.500000E-01 5.625000E-01 -1.332150E-01
1.625000E-01 5.375000E-01 -9.869097E-02
2.062500E-01 5.437500E-01 -1.046505E-01
2.125000E-01 5.875000E-01 -2.052810E-01
1.687500E-01 5.812500E-01 -2.094035E-01
3.125000E-01 6.250000E-01 -2.052237E-01
3.750000E-01 6.250000E-01 -1.409445E-01
3.750000E-01 6.875000E-01 -2.052237E-01
2.875000E-01 6.625000E-01 -2.913070E-01
3.312500E-01 6.687500E-01 -2.456830E-01
3.375000E-01 7.125000E-01 -2.913070E-01
2.937500E-01 7.062500E-01 -3.504430E-01
4.375000E-01 6.250000E-01 -7.239685E-02
5.000000E-01 6.250000E-01 4.925489E-04
5.000000E-01 6.875000E-01 -3.923390E-04
4.125000E-01 6.625000E-01 -1.279087E-01
4.562500E-01 6.687500E-01 -6.605310E-02
4.625000E-01 7.125000E-01 -7.022614E-02
4.187500E-01 7.062500E-01 -1.462297E-01
3.125000E-01 5.000000E-01 -3.923390E-04
3.750000E-01 5.000000E-01 4.925489E-04
3.750000E-01 5.625000E-01 -7.239685E-02
2.875000E-01 5.375000E-01 -7.022614E-02
3.312500E-01 5.437500E-01 -6.605310E-02
3.375000E-01 5.875000E-01 -1.279087E-01
2.937500E-01 5.812500E-01 -1.462297E-01
4.375000E-01 5.000000E-01 -5.124306E-04
5.000000E-01 5.000000E-01 5.108875E-04
5.000000E-01 5.625000E-01 -5.124306E-04
4.125000E-01 5.375000E-01 -3.101695E-02
4.562500E-01 5.437500E-01 -1.735132E-02
4.625000E-01 5.875000E-01 -3.101695E-02
4.187500E-01 5.812500E-01 -6.074271E-02
5.625000E-01 8.750000E-01 1.736792E-01
6.250000E-01 8.750000E-01 3.417800E-01
6.250000E-01 9.375000E-01 3.618421E-01
6.250000E-01 1.000000E+00 3.699282E-01
5.625000E-01 1.000000E+00 1.882824E-01
5.375000E-01 9.125000E-01 1.089912E-01
5.812500E-01 9.187500E-01 2.358261E-01
5.875000E-01 9.625000E-01 2.597267E-01
5.437500E-01 9.562500E-01 1.310873E-01
6.875000E-01 8.750000E-01 4.946281E-01
7.500000E-01 8.750000E-01 6.311537E-01
7.500000E-01 9.375000E-01 6.684396E-01
7.500000E-01 1.000000E+00 6.831321E-01
6.875000E-01 1.000000E+00 5.356225E-01
6.625000E-01 9.125000E-01 4.527418E-01
7.062500E-01 9.187500E-01 5.630129E-01
7.125000E-01 9.625000E-01 5.919823E-01
6.687500E-01 9.562500E-01 4.828615E-01
5.625000E-01 7.500000E-01 1.326538E-01
6.250000E-01 7.500000E-01 2.617319E-01
6.250000E-01 8.125000E-01 3.064830E-01
5.375000E-01 7.875000E-01 8.871720E-02
5.812500E-01 7.937500E-01 1.945229E-01
5.875000E-01 8.375000E-01 2.279718E-01
5.437500E-01 8.312500E-01 1.143552E-01
6.875000E-01 7.500000E-01 3.783559E-01
7.500000E-01 7.500000E-01 4.832035E-01
7.500000E-01 8.125000E-01 5.664911E-01
6.625000E-01 7.875000E-01 3.692335E-01
7.062500E-01 7.937500E-01 4.641061E-01
7.125000E-01 8.375000E-01 5.199472E-01
6.687500E-01 8.312500E-01 4.207245E-01
8.125000E-01 8.750000E-01 7.402853E-01
8.750000E-01 8.750000E-01 8.244484E-01
8.750000E-01 9.375000E-01 8.732563E-01
8.750000E-01 1.000000E+00 8.923047E-01
8.125000E-01 1.000000E+00 8.014125E-01
7.875000E-01 9.125000E-01 7.275725E-01
8.312500E-01 9.187500E-01 8.044847E-01
8.375000E-01 9.625000E-01 8.341029E-01
7.937500E-01 9.562500E-01 7.611237E-01
9.375000E-01 8.750000E-01 8.732563E-01
1.000000E+00 8.750000E-01 8.923047E-01
1.000000E+00 9.375000E-01 9.451068E-01
1.000000E+00 1.000000E+00 9.652658E-01
9.375000E-01 1.000000E+00 9.451068E-01
9.125000E-01 9.125000E-01 8.916252E-01
9.562500E-01 9.187500E-01 9.234627E-01
9.625000E-01 9.625000E-01 9.491358E-01
9.187500E-01 9.562500E-01 9.234627E-01
8.125000E-01 7.500000E-01 5.664911E-01
8.750000E-01 7.500000E-01 6.311537E-01
8.750000E-01 8.125000E-01 7.402853E-01
7.875000E-01 7.875000E-01 5.935645E-01
8.312500E-01 7.937500E-01 6.630621E-01
8.375000E-01 8.375000E-01 7.327849E-01
7.937500E-01 8.312500E-01 6.630621E-01
9.375000E-01 7.500000E-01 6.684396E-01
1.000000E+00 7.500000E-01 6.831321E-01
1.000000E+00 8.125000E-01 8.014125E-01
9.125000E-01 7.875000E-01 7.275725E-01
9.562500E-01 7.937500E-01 7.611237E-01
9.625000E-01 8.375000E-01 8.341029E-01
9.187500E-01 8.312500E-01 8.044847E-01
5.625000E-01 6.250000E-01 7.149032E-02
6.250000E-01 6.250000E-01 1.418923E-01
6.250000E-01 6.875000E-01 2.045323E-01
5.375000E-01 6.625000E-01 5.499982E-02
5.812500E-01 6.687500E-01 1.236681E-01
5.875000E-01 7.125000E-01 1.615778E-01
5.437500E-01 7.062500E-01 8.027900E-02
6.875000E-01 6.250000E-01 2.045323E-01
7.500000E-01 6.250000E-01 2.617319E-01
7.500000E-01 6.875000E-01 3.783559E-01
6.625000E-01 6.625000E-01 2.295707E-01
7.062500E-01 6.687500E-01 2.945984E-01
7.125000E-01 7.125000E-01 3.688159E-01
6.687500E-01 7.062500E-01 2.945984E-01
5.625000E-01 5.000000E-01 -5.124306E-04
6.250000E-01 5.000000E-01 4.925489E-04
6.250000E-01 5.625000E-01 7.149032E-02
5.375000E-01 5.375000E-01 1.295715E-02
5.812500E-01 5.437500E-01 3.403324E-02
5.875000E-01 5.875000E-01 7.063658E-02
5.437500E-01 5.812500E-01 3.403324E-02
6.875000E-01 5.000000E-01 -3.923390E-04
7.500000E-01 5.000000E-01 4.445470E-04
7.500000E-01 5.625000E-01 1.326538E-01
6.625000E-01 5.375000E-01 5.499982E-02
7.062500E-01 5.437500E-01 8.027900E-02
7.125000E-01 5.875000E-01 1.615778E-01
6.687500E-01 5.812500E-01 1.236681E-01
8.125000E-01 6.250000E-01 3.064830E-01
8.750000E-01 6.250000E-01 3.417800E-01
8.750000E-01 6.875000E-01 4.946281E-01
7.875000E-01 6.625000E-01 3.692335E-01
8.312500E-01 6.687500E-01 4.207245E-01
8.375000E-01 7.125000E-01 5.199472E-01
7.937500E-01 7.062500E-01 4.641061E-01
9.375000E-01 6.250000E-01 3.618421E-01
1.000000E+00 6.250000E-01 3.699282E-01
1.000000E+00 6.875000E-01 5.356225E-01
9.125000E-01 6.625000E-01 4.527418E-01
9.562500E-01 6.687500E-01 4.828615E-01
9.625000E-01 7.125000E-01 5.919823E-01
9.187500E-01 7.062500E-01 5.630129E-01
8.125000E-01 5.000000E-01 -1.619358E-04
8.750000E-01 5.000000E-01 3.871271E-04
8.750000E-01 5.625000E-01 1.736792E-01
7.875000E-01 5.375000E-01 8.871720E-02
8.312500E-01 5.437500E-01 1.143552E-01
8.375000E-01 5.875000E-01 2.279718E-01
7.937500E-01 5.812500E-01 1.945229E-01
9.375000E-01 5.000000E-01 1.638748E-04
1.000000E+00 5.000000E-01 4.099816E-04
1.000000E+00 5.625000E-01 1.882824E-01
9.125000E-01 5.375000E-01 1.089912E-01
9.562500E-01 5.437500E-01 1.310873E-01
9.625000E-01 5.875000E-01 2.597267E-01
9.187500E-01 5.812500E-01 2.358261E-01
0.000000E+00 3.750000E-01 3.699282E-01
6.250000E-02 3.750000E-01 3.618421E-01
[...]
CELL_DATA 896
SCALARS sol float 1
LOOKUP_TABLE default
-8.950054E-01
-8.982807E-01
-9.190194E-01
-8.627586E-01
-9.223601E-01
-8.663322E-01
-9.367989E-01
-8.387442E-01
-8.348064E-01
-9.223601E-01
-8.663322E-01
-8.351047E-01
-9.521873E-01
-7.915515E-01
-7.914142E-01
-9.367989E-01
-8.982807E-01
-8.351047E-01
-7.908054E-01
-9.521873E-01
-7.721736E-01
-7.446766E-01
-7.637691E-01
-9.190194E-01
-8.950054E-01
-7.908054E-01
-8.348064E-01
-7.603492E-01
-7.205146E-01
-7.003777E-01
-7.045667E-01
-8.627586E-01
-7.637691E-01
-7.603492E-01
-7.914142E-01
-7.054820E-01
-6.805527E-01
-6.421365E-01
-6.767357E-01
-8.387442E-01
-7.045667E-01
-7.054820E-01
-7.721736E-01
-6.627468E-01
-6.240389E-01
-5.977861E-01
-6.057595E-01
-6.188756E-01
-7.915515E-01
-6.805527E-01
-6.767357E-01
-6.627468E-01
-7.205146E-01
-6.126958E-01
-5.661846E-01
-5.258707E-01
-5.400167E-01
-5.661487E-01
-7.446766E-01
-6.240389E-01
-6.188756E-01
-6.126958E-01
-7.003777E-01
-5.537020E-01
-5.129832E-01
-5.421406E-01
-5.044784E-01
-4.570206E-01
-5.119663E-01
-5.661846E-01
-6.057595E-01
-5.661487E-01
-5.537020E-01
-6.421365E-01
-5.056995E-01
-4.355346E-01
-4.687275E-01
-4.330839E-01
-3.991558E-01
-4.523774E-01
-5.129832E-01
-5.421406E-01
-5.400167E-01
-5.119663E-01
-5.056995E-01
-5.977861E-01
-4.430794E-01
-3.911736E-01
-4.153228E-01
-4.331466E-01
-3.237737E-01
-4.115481E-01
-4.355346E-01
-4.687275E-01
-5.044784E-01
-4.523774E-01
-4.430794E-01
-5.258707E-01
-4.038931E-01
-3.179718E-01
-3.527061E-01
-3.683125E-01
-2.658356E-01
-2.845001E-01
-3.425083E-01
-3.911736E-01
-4.153228E-01
-4.331466E-01
-4.330839E-01
-4.115481E-01
-4.038931E-01
-4.570206E-01
-3.401748E-01
-2.553611E-01
-2.857374E-01
-3.185035E-01
-1.801360E-01
-2.064083E-01
-3.103213E-01
-3.179718E-01
-3.527061E-01
-3.683125E-01
-3.991558E-01
-3.425083E-01
-3.401748E-01
-2.958110E-01
-2.413824E-01
-1.840955E-01
-2.404816E-01
-2.576412E-01
-1.599824E-01
-9.978828E-02
-2.524711E-01
-2.553611E-01
-2.845001E-01
-2.857374E-01
-3.185035E-01
-3.237737E-01
-3.103213E-01
-2.958110E-01
-2.474046E-01
-1.605965E-01
-1.001867E-01
-1.731117E-01
-1.997928E-01
-7.971665E-02
-3.716265E-02
-2.041120E-01
-1.840955E-01
-2.413824E-01
-2.064083E-01
-2.404816E-01
-2.576412E-01
-2.658356E-01
-2.524711E-01
-2.474046E-01
-1.972837E-01
-1.375817E-01
-9.066633E-02
-4.223367E-02
-1.477155E-01
-1.801091E-01
4.388706E-02
-1.597874E-01
-1.001867E-01
-1.605965E-01
-1.599824E-01
-1.731117E-01
-1.997928E-01
-1.801360E-01
-2.041120E-01
-1.972837E-01
-1.580256E-01
-6.783447E-02
-3.282193E-02
3.651405E-02
-7.914032E-02
-1.165570E-01
1.065932E-01
8.008079E-02
-1.133972E-01
-4.223367E-02
-9.066633E-02
-1.375817E-01
-7.971665E-02
-1.477155E-01
-1.801091E-01
-9.978828E-02
-1.597874E-01
-1.580256E-01
-1.137500E-01
-3.478930E-02
3.819347E-02
9.435249E-02
-6.766553E-02
-9.416967E-02
1.930321E-01
1.586349E-01
-8.878620E-02
3.651405E-02
-3.282193E-02
-6.783447E-02
-3.716265E-02
-7.914032E-02
-1.165570E-01
-1.133972E-01
-1.137500E-01
-9.136137E-02
2.966661E-02
9.614052E-02
6.763683E-02
1.728322E-01
-2.339131E-02
-4.555720E-02
2.088801E-01
2.726458E-01
-4.598580E-02
9.435249E-02
8.008079E-02
3.819347E-02
-3.478930E-02
4.388706E-02
-6.766553E-02
-9.416967E-02
-8.878620E-02
-9.136137E-02
-5.471884E-02
7.393853E-02
1.720021E-01
1.325318E-01
2.504284E-01
2.677707E-02
-2.198430E-02
2.857983E-01
3.304990E-01
-3.430708E-02
1.728322E-01
9.614052E-02
1.586349E-01
6.763683E-02
2.966661E-02
1.065932E-01
-2.339131E-02
-4.555720E-02
-4.598580E-02
-5.471884E-02
-3.637033E-02
7.112579E-02
1.386313E-01
1.789500E-01
2.478103E-01
3.131494E-01
4.496216E-02
1.836668E-02
4.048773E-01
-1.034561E-02
2.504284E-01
1.720021E-01
2.088801E-01
1.325318E-01
7.393853E-02
1.930321E-01
2.677707E-02
-2.198430E-02
-3.430708E-02
-3.637033E-02
-1.629357E-02
1.248369E-01
1.963029E-01
2.429925E-01
2.920783E-01
3.854546E-01
8.631563E-02
4.232756E-02
4.628041E-01
4.324818E-01
1.133779E-02
3.131494E-01
2.478103E-01
1.789500E-01
2.857983E-01
1.386313E-01
7.112579E-02
2.726458E-01
4.496216E-02
1.836668E-02
-1.034561E-02
-1.629357E-02
-5.784288E-03
1.218416E-01
1.853212E-01
2.542459E-01
3.563291E-01
4.297166E-01
8.338607E-02
3.533870E-02
5.368221E-01
4.995388E-01
1.549265E-02
3.854546E-01
2.920783E-01
2.429925E-01
3.304990E-01
1.963029E-01
1.248369E-01
8.631563E-02
4.232756E-02
1.133779E-02
-5.784288E-03
4.318535E-03
1.632594E-01
2.092807E-01
3.124828E-01
4.190442E-01
3.654803E-01
5.034609E-01
1.123502E-01
5.872005E-02
5.459523E-01
6.035790E-01
2.700787E-02
4.297166E-01
4.324818E-01
3.563291E-01
2.542459E-01
4.048773E-01
1.853212E-01
1.218416E-01
8.338607E-02
3.533870E-02
1.549265E-02
4.318535E-03
4.318535E-03
1.566976E-01
2.536209E-01
3.364404E-01
4.784332E-01
4.180214E-01
5.629315E-01
9.467307E-02
4.623435E-02
6.078116E-01
6.478513E-01
1.549265E-02
5.034609E-01
4.190442E-01
4.995388E-01
3.654803E-01
3.124828E-01
4.628041E-01
2.092807E-01
1.632594E-01
1.123502E-01
5.872005E-02
2.700787E-02
4.318535E-03
-5.784288E-03
1.919985E-01
3.115621E-01
2.429005E-01
4.038985E-01
4.682592E-01
5.485763E-01
6.208687E-01
9.467307E-02
5.872005E-02
7.042318E-01
1.133779E-02
5.629315E-01
4.784332E-01
5.459523E-01
4.180214E-01
3.364404E-01
5.368221E-01
2.536209E-01
1.566976E-01
9.467307E-02
4.623435E-02
1.549265E-02
-5.784288E-03
-1.629357E-02
1.919985E-01
3.472567E-01
2.729225E-01
4.418885E-01
5.168481E-01
5.725306E-01
6.757219E-01
1.123502E-01
3.533870E-02
7.485561E-01
7.190453E-01
-1.034561E-02
6.208687E-01
5.485763E-01
4.682592E-01
6.078116E-01
4.038985E-01
3.115621E-01
6.035790E-01
2.429005E-01
1.919985E-01
9.467307E-02
5.872005E-02
1.133779E-02
-1.629357E-02
-3.637033E-02
1.566976E-01
2.429005E-01
3.193375E-01
4.101251E-01
5.046002E-01
6.202356E-01
6.996705E-01
8.338607E-02
4.232756E-02
7.988797E-01
7.643937E-01
-3.430708E-02
6.757219E-01
5.725306E-01
5.168481E-01
6.478513E-01
4.418885E-01
3.472567E-01
2.729225E-01
1.919985E-01
1.123502E-01
3.533870E-02
-1.034561E-02
-3.637033E-02
-5.471884E-02
1.632594E-01
2.536209E-01
3.472567E-01
4.101251E-01
5.477530E-01
6.781670E-01
6.077059E-01
7.574475E-01
8.631563E-02
1.836668E-02
7.999038E-01
8.426067E-01
-4.598580E-02
6.996705E-01
7.190453E-01
6.202356E-01
5.046002E-01
7.042318E-01
4.101251E-01
3.193375E-01
2.429005E-01
1.566976E-01
8.338607E-02
4.232756E-02
-3.430708E-02
-5.471884E-02
-9.136137E-02
1.218416E-01
2.092807E-01
3.115621E-01
4.418885E-01
5.477530E-01
7.120441E-01
6.398962E-01
7.897395E-01
4.496216E-02
-2.198430E-02
8.372813E-01
8.665546E-01
-8.878620E-02
7.574475E-01
6.781670E-01
7.643937E-01
6.077059E-01
5.477530E-01
7.485561E-01
4.101251E-01
3.472567E-01
2.536209E-01
1.632594E-01
8.631563E-02
1.836668E-02
-4.598580E-02
-9.136137E-02
-1.137500E-01
1.248369E-01
1.853212E-01
3.364404E-01
5.046002E-01
4.038985E-01
6.077059E-01
6.863030E-01
7.658395E-01
8.340631E-01
2.677707E-02
-4.555720E-02
8.963412E-01
-1.133972E-01
7.897395E-01
7.120441E-01
7.999038E-01
6.398962E-01
5.477530E-01
7.988797E-01
4.418885E-01
3.115621E-01
2.092807E-01
1.218416E-01
4.496216E-02
-2.198430E-02
-8.878620E-02
-1.137500E-01
-1.580256E-01
7.112579E-02
1.963029E-01
3.124828E-01
5.168481E-01
4.180214E-01
6.202356E-01
7.120441E-01
7.658395E-01
8.631100E-01
-2.339131E-02
-9.416967E-02
9.202914E-01
8.961147E-01
-1.597874E-01
8.340631E-01
7.658395E-01
6.863030E-01
8.372813E-01
6.077059E-01
5.046002E-01
8.426067E-01
4.038985E-01
3.364404E-01
1.853212E-01
1.248369E-01
2.677707E-02
-4.555720E-02
-1.133972E-01
-1.580256E-01
-1.972837E-01
7.393853E-02
2.542459E-01
1.386313E-01
3.654803E-01
4.682592E-01
5.725306E-01
6.781670E-01
7.897395E-01
8.631100E-01
-6.766553E-02
-1.165570E-01
9.392351E-01
9.128502E-01
-2.041120E-01
8.631100E-01
7.658395E-01
7.120441E-01
8.665546E-01
6.202356E-01
5.168481E-01
4.180214E-01
3.124828E-01
1.963029E-01
7.112579E-02
-2.339131E-02
-9.416967E-02
-1.597874E-01
-1.972837E-01
-2.474046E-01
2.966661E-02
2.429925E-01
1.325318E-01
3.563291E-01
4.784332E-01
5.485763E-01
6.996705E-01
8.340631E-01
7.574475E-01
8.961147E-01
-7.914032E-02
-1.801091E-01
9.320204E-01
9.531695E-01
-2.524711E-01
8.631100E-01
8.961147E-01
7.897395E-01
6.781670E-01
8.963412E-01
5.725306E-01
4.682592E-01
3.654803E-01
2.542459E-01
1.386313E-01
7.393853E-02
-6.766553E-02
-1.165570E-01
-2.041120E-01
-2.474046E-01
-2.958110E-01
6.763683E-02
-3.478930E-02
1.789500E-01
2.920783E-01
4.190442E-01
5.629315E-01
6.757219E-01
8.372813E-01
7.643937E-01
8.963412E-01
-1.477155E-01
-1.997928E-01
9.392351E-01
9.531695E-01
-3.103213E-01
8.961147E-01
8.340631E-01
9.128502E-01
7.574475E-01
6.996705E-01
9.202914E-01
5.485763E-01
4.784332E-01
3.563291E-01
2.429925E-01
1.325318E-01
2.966661E-02
-7.914032E-02
-1.801091E-01
-2.524711E-01
-2.958110E-01
-3.401748E-01
3.819347E-02
-6.783447E-02
1.720021E-01
2.478103E-01
4.297166E-01
6.208687E-01
5.034609E-01
7.190453E-01
7.999038E-01
8.665546E-01
9.202914E-01
-1.731117E-01
-2.576412E-01
-3.425083E-01
8.963412E-01
8.372813E-01
9.320204E-01
7.643937E-01
6.757219E-01
9.392351E-01
5.629315E-01
4.190442E-01
2.920783E-01
1.789500E-01
6.763683E-02
-3.478930E-02
-1.477155E-01
-1.997928E-01
-3.103213E-01
-3.401748E-01
-4.038931E-01
9.614052E-02
-3.282193E-02
-1.375817E-01
2.504284E-01
3.854546E-01
6.078116E-01
4.995388E-01
7.042318E-01
7.988797E-01
8.426067E-01
-2.404816E-01
-3.185035E-01
-4.115481E-01
9.202914E-01
8.665546E-01
7.999038E-01
9.392351E-01
7.190453E-01
6.208687E-01
9.531695E-01
5.034609E-01
4.297166E-01
2.478103E-01
1.720021E-01
3.819347E-02
-6.783447E-02
-1.731117E-01
-2.576412E-01
-3.425083E-01
-4.038931E-01
-4.430794E-01
9.435249E-02
-9.066633E-02
-1.605965E-01
3.131494E-01
1.728322E-01
4.324818E-01
5.459523E-01
6.478513E-01
7.485561E-01
-2.857374E-01
-3.683125E-01
-4.523774E-01
8.426067E-01
7.988797E-01
9.531695E-01
7.042318E-01
6.078116E-01
4.995388E-01
3.854546E-01
2.504284E-01
9.614052E-02
-3.282193E-02
-1.375817E-01
-2.404816E-01
-3.185035E-01
-4.115481E-01
-4.430794E-01
-5.056995E-01
3.651405E-02
-1.001867E-01
-2.413824E-01
2.857983E-01
1.586349E-01
4.048773E-01
5.368221E-01
6.035790E-01
-3.527061E-01
-4.331466E-01
-5.119663E-01
7.485561E-01
6.478513E-01
5.459523E-01
4.324818E-01
3.131494E-01
1.728322E-01
9.435249E-02
-9.066633E-02
-1.605965E-01
-2.857374E-01
-3.683125E-01
-4.523774E-01
-5.056995E-01
-5.537020E-01
8.008079E-02
-4.223367E-02
-1.840955E-01
-2.553611E-01
2.088801E-01
3.304990E-01
4.628041E-01
-4.153228E-01
-4.687275E-01
-5.661487E-01
6.035790E-01
5.368221E-01
4.048773E-01
2.857983E-01
1.586349E-01
3.651405E-02
-1.001867E-01
-2.413824E-01
-3.527061E-01
-4.331466E-01
-5.119663E-01
-5.537020E-01
-6.126958E-01
4.388706E-02
-7.971665E-02
-2.064083E-01
-3.179718E-01
1.930321E-01
2.726458E-01
-4.355346E-01
-5.421406E-01
-6.188756E-01
4.628041E-01
3.304990E-01
2.088801E-01
8.008079E-02
-4.223367E-02
-1.840955E-01
-2.553611E-01
-4.153228E-01
-4.687275E-01
-5.661487E-01
-6.126958E-01
-6.627468E-01
1.065932E-01
-3.716265E-02
-1.599824E-01
-2.845001E-01
-3.911736E-01
-5.129832E-01
-5.661846E-01
-6.767357E-01
2.726458E-01
1.930321E-01
4.388706E-02
-7.971665E-02
-2.064083E-01
-3.179718E-01
-4.355346E-01
-5.421406E-01
-6.188756E-01
-6.627468E-01
-7.054820E-01
-9.978828E-02
-1.801360E-01
-3.237737E-01
-4.330839E-01
-5.400167E-01
-6.240389E-01
-7.045667E-01
1.065932E-01
-3.716265E-02
-1.599824E-01
-2.845001E-01
-3.911736E-01
-5.129832E-01
-5.661846E-01
-6.767357E-01
-7.054820E-01
-7.603492E-01
-2.658356E-01
-3.991558E-01
-5.044784E-01
-6.057595E-01
-6.805527E-01
-7.637691E-01
-9.978828E-02
-1.801360E-01
-3.237737E-01
-4.330839E-01
-5.400167E-01
-6.240389E-01
-7.045667E-01
-7.603492E-01
-7.908054E-01
-4.570206E-01
-5.258707E-01
-6.421365E-01
-7.205146E-01
-7.914142E-01
-2.658356E-01
-3.991558E-01
-5.044784E-01
-6.057595E-01
-6.805527E-01
-7.637691E-01
-7.908054E-01
-8.351047E-01
-5.977861E-01
-7.003777E-01
-7.721736E-01
-8.348064E-01
-4.570206E-01
-5.258707E-01
-6.421365E-01
-7.205146E-01
-7.914142E-01
-8.351047E-01
-8.663322E-01
-7.446766E-01
-7.915515E-01
-8.627586E-01
-5.977861E-01
-7.003777E-01
-7.721736E-01
-8.348064E-01
-8.663322E-01
-8.982807E-01
-8.387442E-01
-8.950054E-01
-7.446766E-01
-7.915515E-01
-8.627586E-01
-8.982807E-01
-9.223601E-01
-9.190194E-01
-8.387442E-01
-8.950054E-01
-9.223601E-01
-9.367989E-01
-9.190194E-01
-9.367989E-01
-9.521873E-01
-9.521873E-01
