# vtk DataFile Version 2.0
Grille
ASCII
DATASET POLYDATA
POINTS 481 float
0.000000E+00 8.750000E-01 -8.162201E-01
6.250000E-02 8.750000E-01 -7.989227E-01
1.250000E-01 8.750000E-01 -7.540162E-01
1.250000E-01 9.375000E-01 -7.989227E-01
1.250000E-01 1.000000E+00 -8.162201E-01
6.250000E-02 1.000000E+00 -8.648551E-01
0.000000E+00 1.000000E+00 -8.839835E-01
0.000000E+00 9.375000E-01 -8.648551E-01
3.750000E-02 9.125000E-01 -8.417331E-01
8.125000E-02 9.187500E-01 -8.252124E-01
8.750000E-02 9.625000E-01 -8.417331E-01
4.375000E-02 9.562500E-01 -8.650345E-01
1.875000E-01 8.750000E-01 -6.772955E-01
2.500000E-01 8.750000E-01 -5.769303E-01
2.500000E-01 9.375000E-01 -6.113636E-01
2.500000E-01 1.000000E+00 -6.244992E-01
1.875000E-01 1.000000E+00 -7.329894E-01
1.625000E-01 9.125000E-01 -7.394748E-01
2.062500E-01 9.187500E-01 -6.797861E-01
2.125000E-01 9.625000E-01 -6.866485E-01
1.687500E-01 9.562500E-01 -7.531970E-01
0.000000E+00 7.500000E-01 -6.244992E-01
6.250000E-02 7.500000E-01 -6.113636E-01
1.250000E-01 7.500000E-01 -5.769303E-01
1.250000E-01 8.125000E-01 -6.772955E-01
0.000000E+00 8.125000E-01 -7.329894E-01
3.750000E-02 7.875000E-01 -6.866485E-01
8.125000E-02 7.937500E-01 -6.797861E-01
8.750000E-02 8.375000E-01 -7.394748E-01
4.375000E-02 8.312500E-01 -7.531970E-01
1.875000E-01 7.500000E-01 -5.184364E-01
2.500000E-01 7.500000E-01 -4.414024E-01
2.500000E-01 8.125000E-01 -5.184364E-01
1.625000E-01 7.875000E-01 -6.033741E-01
2.062500E-01 7.937500E-01 -5.599631E-01
2.125000E-01 8.375000E-01 -6.033741E-01
1.687500E-01 8.312500E-01 -6.558550E-01
3.125000E-01 8.750000E-01 -4.525205E-01
3.750000E-01 8.750000E-01 -3.119821E-01
3.750000E-01 9.375000E-01 -3.307243E-01
3.750000E-01 1.000000E+00 -3.377103E-01
3.125000E-01 1.000000E+00 -4.895962E-01
2.875000E-01 9.125000E-01 -5.246230E-01
3.312500E-01 9.187500E-01 -4.308621E-01
3.375000E-01 9.625000E-01 -4.270501E-01
2.937500E-01 9.562500E-01 -5.267428E-01
4.375000E-01 8.750000E-01 -1.588218E-01
5.000000E-01 8.750000E-01 4.967377E-04
5.000000E-01 9.375000E-01 2.923313E-04
5.000000E-01 1.000000E+00 5.170887E-04
4.375000E-01 1.000000E+00 -1.716509E-01
4.125000E-01 9.125000E-01 -2.298810E-01
4.562500E-01 9.187500E-01 -1.163176E-01
4.625000E-01 9.625000E-01 -1.024157E-01
4.187500E-01 9.562500E-01 -2.200829E-01
3.125000E-01 7.500000E-01 -3.465086E-01
3.750000E-01 7.500000E-01 -2.386149E-01
3.750000E-01 8.125000E-01 -2.806018E-01
2.875000E-01 7.875000E-01 -4.281686E-01
3.312500E-01 7.937500E-01 -3.548309E-01
3.375000E-01 8.375000E-01 -3.753691E-01
2.937500E-01 8.312500E-01 -4.586082E-01
4.375000E-01 7.500000E-01 -1.217749E-01
5.000000E-01 7.500000E-01 5.491154E-04
5.000000E-01 8.125000E-01 -5.850699E-06
4.125000E-01 7.875000E-01 -1.877288E-01
4.562500E-01 7.937500E-01 -9.563301E-02
4.625000E-01 8.375000E-01 -9.017876E-02
4.187500E-01 8.312500E-01 -1.915016E-01
0.000000E+00 6.250000E-01 -3.377103E-01
6.250000E-02 6.250000E-01 -3.307243E-01
1.250000E-01 6.250000E-01 -3.119821E-01
1.250000E-01 6.875000E-01 -4.525205E-01
0.000000E+00 6.875000E-01 -4.895962E-01
3.750000E-02 6.625000E-01 -4.270501E-01
8.125000E-02 6.687500E-01 -4.308621E-01
8.750000E-02 7.125000E-01 -5.246230E-01
4.375000E-02 7.062500E-01 -5.267428E-01
1.875000E-01 6.250000E-01 -2.806018E-01
2.500000E-01 6.250000E-01 -2.386149E-01
2.500000E-01 6.875000E-01 -3.465086E-01
1.625000E-01 6.625000E-01 -3.753691E-01
2.062500E-01 6.687500E-01 -3.548309E-01
2.125000E-01 7.125000E-01 -4.281686E-01
1.687500E-01 7.062500E-01 -4.586082E-01
0.000000E+00 5.000000E-01 5.170887E-04
6.250000E-02 5.000000E-01 2.923313E-04
1.250000E-01 5.000000E-01 4.967377E-04
1.250000E-01 5.625000E-01 -1.588218E-01
0.000000E+00 5.625000E-01 -1.716509E-01
3.750000E-02 5.375000E-01 -1.024157E-01
8.125000E-02 5.437500E-01 -1.163176E-01
8.750000E-02 5.875000E-01 -2.298810E-01
4.375000E-02 5.812500E-01 -2.200829E-01
1.875000E-01 5.000000E-01 -5.850699E-06
2.500000E-01 5.000000E-01 5.491154E-04
2.500000E-01 5.625000E-01 -1.217749E-01
1.625000E-01 5.375000E-01 -9.017876E-02
2.062500E-01 5.437500E-01 -9.563301E-02
2.125000E-01 5.875000E-01 -1.877288E-01
1.687500E-01 5.812500E-01 -1.915016E-01
3.125000E-01 6.250000E-01 -1.876767E-01
3.750000E-01 6.250000E-01 -1.288491E-01
3.750000E-01 6.875000E-01 -1.876767E-01
2.875000E-01 6.625000E-01 -2.664593E-01
3.312500E-01 6.687500E-01 -2.247047E-01
3.375000E-01 7.125000E-01 -2.664593E-01
2.937500E-01 7.062500E-01 -3.205797E-01
4.375000E-01 6.250000E-01 -6.611494E-02
5.000000E-01 6.250000E-01 5.927998E-04
5.000000E-01 6.875000E-01 -2.169773E-04
4.125000E-01 6.625000E-01 -1.169187E-01
4.562500E-01 6.687500E-01 -6.030922E-02
4.625000E-01 7.125000E-01 -6.412820E-02
4.187500E-01 7.062500E-01 -1.336858E-01
3.125000E-01 5.000000E-01 -2.169773E-04
3.750000E-01 5.000000E-01 5.927998E-04
3.750000E-01 5.625000E-01 -6.611494E-02
2.875000E-01 5.375000E-01 -6.412820E-02
3.312500E-01 5.437500E-01 -6.030922E-02
3.375000E-01 5.875000E-01 -1.169187E-01
2.937500E-01 5.812500E-01 -1.336858E-01
4.375000E-01 5.000000E-01 -3.270846E-04
5.000000E-01 5.000000E-01 6.094789E-04
5.000000E-01 5.625000E-01 -3.270846E-04
4.125000E-01 5.375000E-01 -2.824449E-02
4.562500E-01 5.437500E-01 -1.573790E-02
4.625000E-01 5.875000E-01 -2.824449E-02
4.187500E-01 5.812500E-01 -5.544910E-02
5.625000E-01 8.750000E-01 1.590920E-01
6.250000E-01 8.750000E-01 3.129364E-01
6.250000E-01 9.375000E-01 3.312969E-01
6.250000E-01 1.000000E+00 3.386969E-01
5.625000E-01 1.000000E+00 1.724567E-01
5.375000E-01 9.125000E-01 9.989023E-02
5.812500E-01 9.187500E-01 2.159681E-01
5.875000E-01 9.625000E-01 2.378417E-01
5.437500E-01 9.562500E-01 1.201124E-01
6.875000E-01 8.750000E-01 4.528215E-01
7.500000E-01 8.750000E-01 5.777686E-01
7.500000E-01 9.375000E-01 6.118921E-01
7.500000E-01 1.000000E+00 6.253384E-01
6.875000E-01 1.000000E+00 4.903391E-01
6.625000E-01 9.125000E-01 4.144877E-01
7.062500E-01 9.187500E-01 5.154065E-01
7.125000E-01 9.625000E-01 5.419190E-01
6.687500E-01 9.562500E-01 4.420529E-01
5.625000E-01 7.500000E-01 1.215458E-01
6.250000E-01 7.500000E-01 2.396770E-01
6.250000E-01 8.125000E-01 2.806328E-01
5.375000E-01 7.875000E-01 8.133560E-02
5.812500E-01 7.937500E-01 1.781678E-01
5.875000E-01 8.375000E-01 2.087800E-01
5.437500E-01 8.312500E-01 1.047994E-01
6.875000E-01 7.500000E-01 3.464102E-01
7.500000E-01 7.500000E-01 4.423659E-01
7.500000E-01 8.125000E-01 5.185899E-01
6.625000E-01 7.875000E-01 3.380616E-01
7.062500E-01 7.937500E-01 4.248880E-01
7.125000E-01 8.375000E-01 4.759932E-01
6.687500E-01 8.312500E-01 3.851857E-01
8.125000E-01 8.750000E-01 6.776447E-01
8.750000E-01 8.750000E-01 7.546701E-01
8.750000E-01 9.375000E-01 7.993384E-01
8.750000E-01 1.000000E+00 8.167712E-01
8.125000E-01 1.000000E+00 7.335877E-01
7.875000E-01 9.125000E-01 6.660102E-01
8.312500E-01 9.187500E-01 7.363993E-01
8.375000E-01 9.625000E-01 7.635055E-01
7.937500E-01 9.562500E-01 6.967158E-01
9.375000E-01 8.750000E-01 7.993384E-01
1.000000E+00 8.750000E-01 8.167712E-01
1.000000E+00 9.375000E-01 8.650952E-01
1.000000E+00 1.000000E+00 8.835446E-01
9.375000E-01 1.000000E+00 8.650952E-01
9.125000E-01 9.125000E-01 8.161495E-01
9.562500E-01 9.187500E-01 8.452867E-01
9.625000E-01 9.625000E-01 8.687824E-01
9.187500E-01 9.562500E-01 8.452867E-01
8.125000E-01 7.500000E-01 5.185899E-01
8.750000E-01 7.500000E-01 5.777686E-01
8.750000E-01 8.125000E-01 6.776447E-01
7.875000E-01 7.875000E-01 5.433674E-01
8.312500E-01 7.937500E-01 6.069708E-01
8.375000E-01 8.375000E-01 6.707803E-01
7.937500E-01 8.312500E-01 6.069708E-01
9.375000E-01 7.500000E-01 6.118921E-01
1.000000E+00 7.500000E-01 6.253384E-01
1.000000E+00 8.125000E-01 7.335877E-01
9.125000E-01 7.875000E-01 6.660102E-01
9.562500E-01 7.937500E-01 6.967158E-01
9.625000E-01 8.375000E-01 7.635055E-01
9.187500E-01 8.312500E-01 7.363993E-01
5.625000E-01 6.250000E-01 6.556928E-02
6.250000E-01 6.250000E-01 1.300007E-01
6.250000E-01 6.875000E-01 1.873282E-01
5.375000E-01 6.625000E-01 5.047747E-02
5.812500E-01 6.687500E-01 1.133220E-01
5.875000E-01 7.125000E-01 1.480166E-01
5.437500E-01 7.062500E-01 7.361286E-02
6.875000E-01 6.250000E-01 1.873282E-01
7.500000E-01 6.250000E-01 2.396770E-01
7.500000E-01 6.875000E-01 3.464102E-01
6.625000E-01 6.625000E-01 2.102433E-01
7.062500E-01 6.687500E-01 2.697560E-01
7.125000E-01 7.125000E-01 3.376791E-01
6.687500E-01 7.062500E-01 2.697560E-01
5.625000E-01 5.000000E-01 -3.270846E-04
6.250000E-01 5.000000E-01 5.927998E-04
6.250000E-01 5.625000E-01 6.556928E-02
5.375000E-01 5.375000E-01 1.200021E-02
5.812500E-01 5.437500E-01 3.128888E-02
5.875000E-01 5.875000E-01 6.478789E-02
5.437500E-01 5.812500E-01 3.128888E-02
6.875000E-01 5.000000E-01 -2.169773E-04
7.500000E-01 5.000000E-01 5.491154E-04
7.500000E-01 5.625000E-01 1.215458E-01
6.625000E-01 5.375000E-01 5.047747E-02
7.062500E-01 5.437500E-01 7.361286E-02
7.125000E-01 5.875000E-01 1.480166E-01
6.687500E-01 5.812500E-01 1.133220E-01
8.125000E-01 6.250000E-01 2.806328E-01
8.750000E-01 6.250000E-01 3.129364E-01
8.750000E-01 6.875000E-01 4.528215E-01
7.875000E-01 6.625000E-01 3.380616E-01
8.312500E-01 6.687500E-01 3.851857E-01
8.375000E-01 7.125000E-01 4.759932E-01
7.937500E-01 7.062500E-01 4.248880E-01
9.375000E-01 6.250000E-01 3.312969E-01
1.000000E+00 6.250000E-01 3.386969E-01
1.000000E+00 6.875000E-01 4.903391E-01
9.125000E-01 6.625000E-01 4.144877E-01
9.562500E-01 6.687500E-01 4.420529E-01
9.625000E-01 7.125000E-01 5.419190E-01
9.187500E-01 7.062500E-01 5.154065E-01
8.125000E-01 5.000000E-01 -5.850699E-06
8.750000E-01 5.000000E-01 4.967377E-04
8.750000E-01 5.625000E-01 1.590920E-01
7.875000E-01 5.375000E-01 8.133560E-02
8.312500E-01 5.437500E-01 1.047994E-01
8.375000E-01 5.875000E-01 2.087800E-01
7.937500E-01 5.812500E-01 1.781678E-01
9.375000E-01 5.000000E-01 2.923313E-04
1.000000E+00 5.000000E-01 5.170887E-04
1.000000E+00 5.625000E-01 1.724567E-01
9.125000E-01 5.375000E-01 9.989023E-02
9.562500E-01 5.437500E-01 1.201124E-01
9.625000E-01 5.875000E-01 2.378417E-01
9.187500E-01 5.812500E-01 2.159681E-01
0.000000E+00 3.750000E-01 3.386969E-01
6.250000E-02 3.750000E-01 3.312969E-01
[...]
CELL_DATA 896
SCALARS sol float 1
LOOKUP_TABLE default
-8.189586E-01
-8.219561E-01
-8.409361E-01
-7.894466E-01
-8.439933E-01
-7.927171E-01
-8.572076E-01
-7.674688E-01
-7.638648E-01
-8.439933E-01
-7.927171E-01
-7.641379E-01
-8.712911E-01
-7.242783E-01
-7.241527E-01
-8.572076E-01
-8.219561E-01
-7.641379E-01
-7.235955E-01
-8.712911E-01
-7.065439E-01
-6.813791E-01
-6.988521E-01
-8.409361E-01
-8.189586E-01
-7.235955E-01
-7.638648E-01
-6.957222E-01
-6.592661E-01
-6.408371E-01
-6.446706E-01
-7.894466E-01
-6.988521E-01
-6.957222E-01
-7.241527E-01
-6.455082E-01
-6.226933E-01
-5.875352E-01
-6.191999E-01
-7.674688E-01
-6.446706E-01
-6.455082E-01
-7.065439E-01
-6.063974E-01
-5.709723E-01
-5.469461E-01
-5.542431E-01
-5.662469E-01
-7.242783E-01
-6.226933E-01
-6.191999E-01
-6.063974E-01
-6.592661E-01
-5.605912E-01
-5.180246E-01
-4.811297E-01
-4.940760E-01
-5.179916E-01
-6.813791E-01
-5.709723E-01
-5.662469E-01
-5.605912E-01
-6.408371E-01
-5.066006E-01
-4.693352E-01
-4.960196E-01
-4.615517E-01
-4.181189E-01
-4.684044E-01
-5.180246E-01
-5.542431E-01
-5.179916E-01
-5.066006E-01
-5.875352E-01
-4.626691E-01
-3.984549E-01
-4.288326E-01
-3.962122E-01
-3.651616E-01
-4.138692E-01
-4.693352E-01
-4.960196E-01
-4.940760E-01
-4.684044E-01
-4.626691E-01
-5.469461E-01
-4.053599E-01
-3.578562E-01
-3.799572E-01
-3.962694E-01
-2.961725E-01
-3.765027E-01
-3.984549E-01
-4.288326E-01
-4.615517E-01
-4.138692E-01
-4.053599E-01
-4.811297E-01
-3.694969E-01
-2.908625E-01
-3.226510E-01
-3.369339E-01
-2.431480E-01
-2.602294E-01
-3.133181E-01
-3.578562E-01
-3.799572E-01
-3.962694E-01
-3.962122E-01
-3.765027E-01
-3.694969E-01
-4.181189E-01
-3.111825E-01
-2.335617E-01
-2.613618E-01
-2.913492E-01
-1.647165E-01
-1.887605E-01
-2.838609E-01
-2.908625E-01
-3.226510E-01
-3.369339E-01
-3.651616E-01
-3.133181E-01
-3.111825E-01
-2.705812E-01
-2.207685E-01
-1.683402E-01
-2.199441E-01
-2.356485E-01
-1.462721E-01
-9.118318E-02
-2.309170E-01
-2.335617E-01
-2.602294E-01
-2.613618E-01
-2.913492E-01
-2.961725E-01
-2.838609E-01
-2.705812E-01
-2.262802E-01
-1.468340E-01
-9.154757E-02
-1.582878E-01
-1.827062E-01
-7.281369E-02
-3.386878E-02
-1.866591E-01
-1.683402E-01
-2.207685E-01
-1.887605E-01
-2.199441E-01
-2.356485E-01
-2.431480E-01
-2.309170E-01
-2.262802E-01
-1.804102E-01
-1.257711E-01
-8.283460E-02
-3.850953E-02
-1.350456E-01
-1.646919E-01
4.030729E-02
-1.460937E-01
-9.154757E-02
-1.468340E-01
-1.462721E-01
-1.582878E-01
-1.827062E-01
-1.647165E-01
-1.866591E-01
-1.804102E-01
-1.444815E-01
-6.193921E-02
-2.989596E-02
3.355977E-02
-7.228627E-02
-1.065296E-01
9.769540E-02
7.343167E-02
-1.036379E-01
-3.850953E-02
-8.283460E-02
-1.257711E-01
-7.281369E-02
-1.350456E-01
-1.646919E-01
-9.118318E-02
-1.460937E-01
-1.444815E-01
-1.039609E-01
-3.169658E-02
3.509676E-02
8.649300E-02
-6.178466E-02
-8.604107E-02
1.768036E-01
1.453236E-01
-8.111428E-02
3.355977E-02
-2.989596E-02
-6.193921E-02
-3.386878E-02
-7.228627E-02
-1.065296E-01
-1.036379E-01
-1.039609E-01
-8.347103E-02
2.729295E-02
8.812939E-02
6.204305E-02
1.583168E-01
-2.126535E-02
-4.155147E-02
1.913074E-01
2.496651E-01
-4.194379E-02
8.649300E-02
7.343167E-02
3.509676E-02
-3.169658E-02
4.030729E-02
-6.178466E-02
-8.604107E-02
-8.111428E-02
-8.347103E-02
-4.993617E-02
6.781017E-02
1.575571E-01
1.214343E-01
2.293322E-01
2.464833E-02
-1.997780E-02
2.617022E-01
3.026118E-01
-3.125554E-02
1.583168E-01
8.812939E-02
1.453236E-01
6.204305E-02
2.729295E-02
9.769540E-02
-2.126535E-02
-4.155147E-02
-4.194379E-02
-4.993617E-02
-3.314383E-02
6.523592E-02
1.270164E-01
1.639157E-01
2.269362E-01
2.867338E-01
4.129112E-02
1.695110E-02
3.706823E-01
-9.326257E-03
2.293322E-01
1.575571E-01
1.913074E-01
1.214343E-01
6.781017E-02
1.768036E-01
2.464833E-02
-1.997780E-02
-3.125554E-02
-3.314383E-02
-1.476982E-02
1.143918E-01
1.797969E-01
2.225269E-01
2.674497E-01
3.529070E-01
7.913743E-02
3.887985E-02
4.236963E-01
3.959458E-01
1.051820E-02
2.867338E-01
2.269362E-01
1.639157E-01
2.617022E-01
1.270164E-01
6.523592E-02
2.496651E-01
4.129112E-02
1.695110E-02
-9.326257E-03
-1.476982E-02
-5.151836E-03
1.116505E-01
1.697465E-01
2.328258E-01
3.262516E-01
3.934152E-01
7.645623E-02
3.248365E-02
4.914370E-01
4.573157E-01
1.432067E-02
3.529070E-01
2.674497E-01
2.225269E-01
3.026118E-01
1.797969E-01
1.143918E-01
7.913743E-02
3.887985E-02
1.051820E-02
-5.151836E-03
4.094201E-03
1.495556E-01
1.916740E-01
2.861238E-01
3.836479E-01
3.346267E-01
4.609052E-01
1.029640E-01
5.388202E-02
4.997928E-01
5.525322E-01
2.485932E-02
3.934152E-01
3.959458E-01
3.262516E-01
2.328258E-01
3.706823E-01
1.697465E-01
1.116505E-01
7.645623E-02
3.248365E-02
1.432067E-02
4.094201E-03
4.094201E-03
1.435503E-01
2.322538E-01
3.080496E-01
4.380001E-01
3.827118E-01
5.153322E-01
8.678595E-02
4.245522E-02
5.564059E-01
5.930498E-01
1.432067E-02
4.609052E-01
3.836479E-01
4.573157E-01
3.346267E-01
2.861238E-01
4.236963E-01
1.916740E-01
1.495556E-01
1.029640E-01
5.388202E-02
2.485932E-02
4.094201E-03
-5.151836E-03
1.758574E-01
2.852811E-01
2.224425E-01
3.697866E-01
4.286890E-01
5.021944E-01
5.683557E-01
8.678595E-02
5.388202E-02
6.446488E-01
1.051820E-02
5.153322E-01
4.380001E-01
4.997928E-01
3.827118E-01
3.080496E-01
4.914370E-01
2.322538E-01
1.435503E-01
8.678595E-02
4.245522E-02
1.432067E-02
-5.151836E-03
-1.476982E-02
1.758574E-01
3.179484E-01
2.499184E-01
4.045547E-01
4.731570E-01
5.241172E-01
6.185570E-01
1.029640E-01
3.248365E-02
6.852140E-01
6.582060E-01
-9.326257E-03
5.683557E-01
5.021944E-01
4.286890E-01
5.564059E-01
3.697866E-01
2.852811E-01
5.525322E-01
2.224425E-01
1.758574E-01
8.678595E-02
5.388202E-02
1.051820E-02
-1.476982E-02
-3.314383E-02
1.435503E-01
2.224425E-01
2.923970E-01
3.754851E-01
4.619479E-01
5.677764E-01
6.404745E-01
7.645623E-02
3.887985E-02
7.312697E-01
6.997084E-01
-3.125554E-02
6.185570E-01
5.241172E-01
4.731570E-01
5.930498E-01
4.045547E-01
3.179484E-01
2.499184E-01
1.758574E-01
1.029640E-01
3.248365E-02
-9.326257E-03
-3.314383E-02
-4.993617E-02
1.495556E-01
2.322538E-01
3.179484E-01
3.754851E-01
5.014410E-01
6.207947E-01
5.563093E-01
6.933514E-01
7.913743E-02
1.695110E-02
7.322069E-01
7.712881E-01
-4.194379E-02
6.404745E-01
6.582060E-01
5.677764E-01
4.619479E-01
6.446488E-01
3.754851E-01
2.923970E-01
2.224425E-01
1.435503E-01
7.645623E-02
3.887985E-02
-3.125554E-02
-4.993617E-02
-8.347103E-02
1.116505E-01
1.916740E-01
2.852811E-01
4.045547E-01
5.014410E-01
6.517986E-01
5.857697E-01
7.229047E-01
4.129112E-02
-1.997780E-02
7.664144E-01
7.932050E-01
-8.111428E-02
6.933514E-01
6.207947E-01
6.997084E-01
5.563093E-01
5.014410E-01
6.852140E-01
3.754851E-01
3.179484E-01
2.322538E-01
1.495556E-01
7.913743E-02
1.695110E-02
-4.194379E-02
-8.347103E-02
-1.039609E-01
1.143918E-01
1.697465E-01
3.080496E-01
4.619479E-01
3.697866E-01
5.563093E-01
6.282406E-01
7.010317E-01
7.634693E-01
2.464833E-02
-4.155147E-02
8.204654E-01
-1.036379E-01
7.229047E-01
6.517986E-01
7.322069E-01
5.857697E-01
5.014410E-01
7.312697E-01
4.045547E-01
2.852811E-01
1.916740E-01
1.116505E-01
4.129112E-02
-1.997780E-02
-8.111428E-02
-1.039609E-01
-1.444815E-01
6.523592E-02
1.797969E-01
2.861238E-01
4.731570E-01
3.827118E-01
5.677764E-01
6.517986E-01
7.010317E-01
7.900527E-01
-2.126535E-02
-8.604107E-02
8.423844E-01
8.202582E-01
-1.460937E-01
7.634693E-01
7.010317E-01
6.282406E-01
7.664144E-01
5.563093E-01
4.619479E-01
7.712881E-01
3.697866E-01
3.080496E-01
1.697465E-01
1.143918E-01
2.464833E-02
-4.155147E-02
-1.036379E-01
-1.444815E-01
-1.804102E-01
6.781017E-02
2.328258E-01
1.270164E-01
3.346267E-01
4.286890E-01
5.241172E-01
6.207947E-01
7.229047E-01
7.900527E-01
-6.178466E-02
-1.065296E-01
8.597214E-01
8.355743E-01
-1.866591E-01
7.900527E-01
7.010317E-01
6.517986E-01
7.932050E-01
5.677764E-01
4.731570E-01
3.827118E-01
2.861238E-01
1.797969E-01
6.523592E-02
-2.126535E-02
-8.604107E-02
-1.460937E-01
-1.804102E-01
-2.262802E-01
2.729295E-02
2.225269E-01
1.214343E-01
3.262516E-01
4.380001E-01
5.021944E-01
6.404745E-01
7.634693E-01
6.933514E-01
8.202582E-01
-7.228627E-02
-1.646919E-01
8.531186E-01
8.724741E-01
-2.309170E-01
7.900527E-01
8.202582E-01
7.229047E-01
6.207947E-01
8.204654E-01
5.241172E-01
4.286890E-01
3.346267E-01
2.328258E-01
1.270164E-01
6.781017E-02
-6.178466E-02
-1.065296E-01
-1.866591E-01
-2.262802E-01
-2.705812E-01
6.204305E-02
-3.169658E-02
1.639157E-01
2.674497E-01
3.836479E-01
5.153322E-01
6.185570E-01
7.664144E-01
6.997084E-01
8.204654E-01
-1.350456E-01
-1.827062E-01
8.597214E-01
8.724741E-01
-2.838609E-01
8.202582E-01
7.634693E-01
8.355743E-01
6.933514E-01
6.404745E-01
8.423844E-01
5.021944E-01
4.380001E-01
3.262516E-01
2.225269E-01
1.214343E-01
2.729295E-02
-7.228627E-02
-1.646919E-01
-2.309170E-01
-2.705812E-01
-3.111825E-01
3.509676E-02
-6.193921E-02
1.575571E-01
2.269362E-01
3.934152E-01
5.683557E-01
4.609052E-01
6.582060E-01
7.322069E-01
7.932050E-01
8.423844E-01
-1.582878E-01
-2.356485E-01
-3.133181E-01
8.204654E-01
7.664144E-01
8.531186E-01
6.997084E-01
6.185570E-01
8.597214E-01
5.153322E-01
3.836479E-01
2.674497E-01
1.639157E-01
6.204305E-02
-3.169658E-02
-1.350456E-01
-1.827062E-01
-2.838609E-01
-3.111825E-01
-3.694969E-01
8.812939E-02
-2.989596E-02
-1.257711E-01
2.293322E-01
3.529070E-01
5.564059E-01
4.573157E-01
6.446488E-01
7.312697E-01
7.712881E-01
-2.199441E-01
-2.913492E-01
-3.765027E-01
8.423844E-01
7.932050E-01
7.322069E-01
8.597214E-01
6.582060E-01
5.683557E-01
8.724741E-01
4.609052E-01
3.934152E-01
2.269362E-01
1.575571E-01
3.509676E-02
-6.193921E-02
-1.582878E-01
-2.356485E-01
-3.133181E-01
-3.694969E-01
-4.053599E-01
8.649300E-02
-8.283460E-02
-1.468340E-01
2.867338E-01
1.583168E-01
3.959458E-01
4.997928E-01
5.930498E-01
6.852140E-01
-2.613618E-01
-3.369339E-01
-4.138692E-01
7.712881E-01
7.312697E-01
8.724741E-01
6.446488E-01
5.564059E-01
4.573157E-01
3.529070E-01
2.293322E-01
8.812939E-02
-2.989596E-02
-1.257711E-01
-2.199441E-01
-2.913492E-01
-3.765027E-01
-4.053599E-01
-4.626691E-01
3.355977E-02
-9.154757E-02
-2.207685E-01
2.617022E-01
1.453236E-01
3.706823E-01
4.914370E-01
5.525322E-01
-3.226510E-01
-3.962694E-01
-4.684044E-01
6.852140E-01
5.930498E-01
4.997928E-01
3.959458E-01
2.867338E-01
1.583168E-01
8.649300E-02
-8.283460E-02
-1.468340E-01
-2.613618E-01
-3.369339E-01
-4.138692E-01
-4.626691E-01
-5.066006E-01
7.343167E-02
-3.850953E-02
-1.683402E-01
-2.335617E-01
1.913074E-01
3.026118E-01
4.236963E-01
-3.799572E-01
-4.288326E-01
-5.179916E-01
5.525322E-01
4.914370E-01
3.706823E-01
2.617022E-01
1.453236E-01
3.355977E-02
-9.154757E-02
-2.207685E-01
-3.226510E-01
-3.962694E-01
-4.684044E-01
-5.066006E-01
-5.605912E-01
4.030729E-02
-7.281369E-02
-1.887605E-01
-2.908625E-01
1.768036E-01
2.496651E-01
-3.984549E-01
-4.960196E-01
-5.662469E-01
4.236963E-01
3.026118E-01
1.913074E-01
7.343167E-02
-3.850953E-02
-1.683402E-01
-2.335617E-01
-3.799572E-01
-4.288326E-01
-5.179916E-01
-5.605912E-01
-6.063974E-01
9.769540E-02
-3.386878E-02
-1.462721E-01
-2.602294E-01
-3.578562E-01
-4.693352E-01
-5.180246E-01
-6.191999E-01
2.496651E-01
1.768036E-01
4.030729E-02
-7.281369E-02
-1.887605E-01
-2.908625E-01
-3.984549E-01
-4.960196E-01
-5.662469E-01
-6.063974E-01
-6.455082E-01
-9.118318E-02
-1.647165E-01
-2.961725E-01
-3.962122E-01
-4.940760E-01
-5.709723E-01
-6.446706E-01
9.769540E-02
-3.386878E-02
-1.462721E-01
-2.602294E-01
-3.578562E-01
-4.693352E-01
-5.180246E-01
-6.191999E-01
-6.455082E-01
-6.957222E-01
-2.431480E-01
-3.651616E-01
-4.615517E-01
-5.542431E-01
-6.226933E-01
-6.988521E-01
-9.118318E-02
-1.647165E-01
-2.961725E-01
-3.962122E-01
-4.940760E-01
-5.709723E-01
-6.446706E-01
-6.957222E-01
-7.235955E-01
-4.181189E-01
-4.811297E-01
-5.875352E-01
-6.592661E-01
-7.241527E-01
-2.431480E-01
-3.651616E-01
-4.615517E-01
-5.542431E-01
-6.226933E-01
-6.988521E-01
-7.235955E-01
-7.641379E-01
-5.469461E-01
-6.408371E-01
-7.065439E-01
-7.638648E-01
-4.181189E-01
-4.811297E-01
-5.875352E-01
-6.592661E-01
-7.241527E-01
-7.641379E-01
-7.927171E-01
-6.813791E-01
-7.242783E-01
-7.894466E-01
-5.469461E-01
-6.408371E-01
-7.065439E-01
-7.638648E-01
-7.927171E-01
-8.219561E-01
-7.674688E-01
-8.189586E-01
-6.813791E-01
-7.242783E-01
-7.894466E-01
-8.219561E-01
-8.439933E-01
-8.409361E-01
-7.674688E-01
-8.189586E-01
-8.439933E-01
-8.572076E-01
-8.409361E-01
-8.572076E-01
-8.712911E-01
-8.712911E-01
