# vtk DataFile Version 2.0
Grille
ASCII
DATASET POLYDATA
POINTS 481 float
0.000000E+00 8.750000E-01 -8.490732E-01
6.250000E-02 8.750000E-01 -8.310809E-01
1.250000E-01 8.750000E-01 -7.843701E-01
1.250000E-01 9.375000E-01 -8.310809E-01
1.250000E-01 1.000000E+00 -8.490732E-01
6.250000E-02 1.000000E+00 -8.996626E-01
0.000000E+00 1.000000E+00 -9.195594E-01
0.000000E+00 9.375000E-01 -8.996626E-01
3.750000E-02 9.125000E-01 -8.756115E-01
8.125000E-02 9.187500E-01 -8.584269E-01
8.750000E-02 9.625000E-01 -8.756115E-01
4.375000E-02 9.562500E-01 -8.998492E-01
1.875000E-01 8.750000E-01 -7.045667E-01
2.500000E-01 8.750000E-01 -6.001687E-01
2.500000E-01 9.375000E-01 -6.359856E-01
2.500000E-01 1.000000E+00 -6.496489E-01
1.875000E-01 1.000000E+00 -7.624985E-01
1.625000E-01 9.125000E-01 -7.692445E-01
2.062500E-01 9.187500E-01 -7.071574E-01
2.125000E-01 9.625000E-01 -7.142955E-01
1.687500E-01 9.562500E-01 -7.835181E-01
0.000000E+00 7.500000E-01 -6.496489E-01
6.250000E-02 7.500000E-01 -6.359856E-01
1.250000E-01 7.500000E-01 -6.001687E-01
1.250000E-01 8.125000E-01 -7.045667E-01
0.000000E+00 8.125000E-01 -7.624985E-01
3.750000E-02 7.875000E-01 -7.142955E-01
8.125000E-02 7.937500E-01 -7.071574E-01
8.750000E-02 8.375000E-01 -7.692445E-01
4.375000E-02 8.312500E-01 -7.835181E-01
1.875000E-01 7.500000E-01 -5.393245E-01
2.500000E-01 7.500000E-01 -4.591952E-01
2.500000E-01 8.125000E-01 -5.393245E-01
1.625000E-01 7.875000E-01 -6.276751E-01
2.062500E-01 7.937500E-01 -5.825197E-01
2.125000E-01 8.375000E-01 -6.276751E-01
1.687500E-01 8.312500E-01 -6.822649E-01
3.125000E-01 8.750000E-01 -4.707601E-01
3.750000E-01 8.750000E-01 -3.245748E-01
3.750000E-01 9.375000E-01 -3.440700E-01
3.750000E-01 1.000000E+00 -3.513365E-01
3.125000E-01 1.000000E+00 -5.093255E-01
2.875000E-01 9.125000E-01 -5.457598E-01
3.312500E-01 9.187500E-01 -4.482313E-01
3.375000E-01 9.625000E-01 -4.442662E-01
2.937500E-01 9.562500E-01 -5.479648E-01
4.375000E-01 8.750000E-01 -1.652603E-01
5.000000E-01 8.750000E-01 4.597389E-04
5.000000E-01 9.375000E-01 2.471550E-04
5.000000E-01 1.000000E+00 4.811370E-04
4.375000E-01 1.000000E+00 -1.786049E-01
4.125000E-01 9.125000E-01 -2.391748E-01
4.562500E-01 9.187500E-01 -1.210483E-01
4.625000E-01 9.625000E-01 -1.065878E-01
4.187500E-01 9.562500E-01 -2.289830E-01
3.125000E-01 7.500000E-01 -3.604885E-01
3.750000E-01 7.500000E-01 -2.482596E-01
3.750000E-01 8.125000E-01 -2.919335E-01
2.875000E-01 7.875000E-01 -4.454298E-01
3.312500E-01 7.937500E-01 -3.691452E-01
3.375000E-01 8.375000E-01 -3.905087E-01
2.937500E-01 8.312500E-01 -4.770925E-01
4.375000E-01 7.500000E-01 -1.267248E-01
5.000000E-01 7.500000E-01 5.142911E-04
5.000000E-01 8.125000E-01 -6.300698E-05
4.125000E-01 7.875000E-01 -1.953289E-01
4.562500E-01 7.937500E-01 -9.953248E-02
4.625000E-01 8.375000E-01 -9.385912E-02
4.187500E-01 8.312500E-01 -1.992533E-01
0.000000E+00 6.250000E-01 -3.513365E-01
6.250000E-02 6.250000E-01 -3.440700E-01
1.250000E-01 6.250000E-01 -3.245748E-01
1.250000E-01 6.875000E-01 -4.707601E-01
0.000000E+00 6.875000E-01 -5.093255E-01
3.750000E-02 6.625000E-01 -4.442662E-01
8.125000E-02 6.687500E-01 -4.482313E-01
8.750000E-02 7.125000E-01 -5.457598E-01
4.375000E-02 7.062500E-01 -5.479648E-01
1.875000E-01 6.250000E-01 -2.919335E-01
2.500000E-01 6.250000E-01 -2.482596E-01
2.500000E-01 6.875000E-01 -3.604885E-01
1.625000E-01 6.625000E-01 -3.905087E-01
2.062500E-01 6.687500E-01 -3.691452E-01
2.125000E-01 7.125000E-01 -4.454298E-01
1.687500E-01 7.062500E-01 -4.770925E-01
0.000000E+00 5.000000E-01 4.811370E-04
6.250000E-02 5.000000E-01 2.471550E-04
1.250000E-01 5.000000E-01 4.597389E-04
1.250000E-01 5.625000E-01 -1.652603E-01
0.000000E+00 5.625000E-01 -1.786049E-01
3.750000E-02 5.375000E-01 -1.065878E-01
8.125000E-02 5.437500E-01 -1.210483E-01
8.750000E-02 5.875000E-01 -2.391748E-01
4.375000E-02 5.812500E-01 -2.289830E-01
1.875000E-01 5.000000E-01 -6.300698E-05
2.500000E-01 5.000000E-01 5.142911E-04
2.500000E-01 5.625000E-01 -1.267248E-01
1.625000E-01 5.375000E-01 -9.385912E-02
2.062500E-01 5.437500E-01 -9.953248E-02
2.125000E-01 5.875000E-01 -1.953289E-01
1.687500E-01 5.812500E-01 -1.992533E-01
3.125000E-01 6.250000E-01 -1.952745E-01
3.750000E-01 6.250000E-01 -1.340831E-01
3.750000E-01 6.875000E-01 -1.952745E-01
2.875000E-01 6.625000E-01 -2.772227E-01
3.312500E-01 6.687500E-01 -2.337904E-01
3.375000E-01 7.125000E-01 -2.772227E-01
2.937500E-01 7.062500E-01 -3.335179E-01
4.375000E-01 6.250000E-01 -6.882827E-02
5.000000E-01 6.250000E-01 5.598307E-04
5.000000E-01 6.875000E-01 -2.825099E-04
4.125000E-01 6.625000E-01 -1.216734E-01
4.562500E-01 6.687500E-01 -6.278927E-02
4.625000E-01 7.125000E-01 -6.676176E-02
4.187500E-01 7.062500E-01 -1.391143E-01
3.125000E-01 5.000000E-01 -2.825099E-04
3.750000E-01 5.000000E-01 5.598307E-04
3.750000E-01 5.625000E-01 -6.882827E-02
2.875000E-01 5.375000E-01 -6.676176E-02
3.312500E-01 5.437500E-01 -6.278927E-02
3.375000E-01 5.875000E-01 -1.216734E-01
2.937500E-01 5.812500E-01 -1.391143E-01
4.375000E-01 5.000000E-01 -3.969601E-04
5.000000E-01 5.000000E-01 5.772222E-04
5.000000E-01 5.625000E-01 -3.969601E-04
4.125000E-01 5.375000E-01 -2.943613E-02
4.562500E-01 5.437500E-01 -1.642699E-02
4.625000E-01 5.875000E-01 -2.943613E-02
4.187500E-01 5.812500E-01 -5.773390E-02
5.625000E-01 8.750000E-01 1.654275E-01
6.250000E-01 8.750000E-01 3.254535E-01
6.250000E-01 9.375000E-01 3.445518E-01
6.250000E-01 1.000000E+00 3.522493E-01
5.625000E-01 1.000000E+00 1.793292E-01
5.375000E-01 9.125000E-01 1.038469E-01
5.812500E-01 9.187500E-01 2.245890E-01
5.875000E-01 9.625000E-01 2.473415E-01
5.437500E-01 9.562500E-01 1.248817E-01
6.875000E-01 8.750000E-01 4.709593E-01
7.500000E-01 8.750000E-01 6.009268E-01
7.500000E-01 9.375000E-01 6.364215E-01
7.500000E-01 1.000000E+00 6.504082E-01
6.875000E-01 1.000000E+00 5.099845E-01
6.625000E-01 9.125000E-01 4.310852E-01
7.062500E-01 9.187500E-01 5.360591E-01
7.125000E-01 9.625000E-01 5.636369E-01
6.687500E-01 9.562500E-01 4.597580E-01
5.625000E-01 7.500000E-01 1.263727E-01
6.250000E-01 7.500000E-01 2.492505E-01
6.250000E-01 8.125000E-01 2.918519E-01
5.375000E-01 7.875000E-01 8.454678E-02
5.812500E-01 7.937500E-01 1.852698E-01
5.875000E-01 8.375000E-01 2.171121E-01
5.437500E-01 8.312500E-01 1.089533E-01
6.875000E-01 7.500000E-01 3.602723E-01
7.500000E-01 7.500000E-01 4.600835E-01
7.500000E-01 8.125000E-01 5.393703E-01
6.625000E-01 7.875000E-01 3.515882E-01
7.062500E-01 7.937500E-01 4.419034E-01
7.125000E-01 8.375000E-01 4.950621E-01
6.687500E-01 8.312500E-01 4.006058E-01
8.125000E-01 8.750000E-01 7.048161E-01
8.750000E-01 8.750000E-01 7.849364E-01
8.750000E-01 9.375000E-01 8.313996E-01
8.750000E-01 1.000000E+00 8.495329E-01
8.125000E-01 1.000000E+00 7.630069E-01
7.875000E-01 9.125000E-01 6.927140E-01
8.312500E-01 9.187500E-01 7.659316E-01
8.375000E-01 9.625000E-01 7.941269E-01
7.937500E-01 9.562500E-01 7.246535E-01
9.375000E-01 8.750000E-01 8.313996E-01
1.000000E+00 8.750000E-01 8.495329E-01
1.000000E+00 9.375000E-01 8.997986E-01
1.000000E+00 1.000000E+00 9.189894E-01
9.375000E-01 1.000000E+00 8.997986E-01
9.125000E-01 9.125000E-01 8.488862E-01
9.562500E-01 9.187500E-01 8.791942E-01
9.625000E-01 9.625000E-01 9.036340E-01
9.187500E-01 9.562500E-01 8.791942E-01
8.125000E-01 7.500000E-01 5.393703E-01
8.750000E-01 7.500000E-01 6.009268E-01
8.750000E-01 8.125000E-01 7.048161E-01
7.875000E-01 7.875000E-01 5.651433E-01
8.312500E-01 7.937500E-01 6.313024E-01
8.375000E-01 8.375000E-01 6.976759E-01
7.937500E-01 8.312500E-01 6.313024E-01
9.375000E-01 7.500000E-01 6.364215E-01
1.000000E+00 7.500000E-01 6.504082E-01
1.000000E+00 8.125000E-01 7.630069E-01
9.125000E-01 7.875000E-01 6.927140E-01
9.562500E-01 7.937500E-01 7.246535E-01
9.625000E-01 8.375000E-01 7.941269E-01
9.187500E-01 8.312500E-01 7.659316E-01
5.625000E-01 6.250000E-01 6.814713E-02
6.250000E-01 6.250000E-01 1.351674E-01
6.250000E-01 6.875000E-01 1.947984E-01
5.375000E-01 6.625000E-01 5.244886E-02
5.812500E-01 6.687500E-01 1.178185E-01
5.875000E-01 7.125000E-01 1.539072E-01
5.437500E-01 7.062500E-01 7.651380E-02
6.875000E-01 6.250000E-01 1.947984E-01
7.500000E-01 6.250000E-01 2.492505E-01
7.500000E-01 6.875000E-01 3.602723E-01
6.625000E-01 6.625000E-01 2.186342E-01
7.062500E-01 6.687500E-01 2.805381E-01
7.125000E-01 7.125000E-01 3.511905E-01
6.687500E-01 7.062500E-01 2.805381E-01
5.625000E-01 5.000000E-01 -3.969601E-04
6.250000E-01 5.000000E-01 5.598307E-04
6.250000E-01 5.625000E-01 6.814713E-02
5.375000E-01 5.375000E-01 1.242563E-02
5.812500E-01 5.437500E-01 3.248933E-02
5.875000E-01 5.875000E-01 6.733437E-02
5.437500E-01 5.812500E-01 3.248933E-02
6.875000E-01 5.000000E-01 -2.825099E-04
7.500000E-01 5.000000E-01 5.142911E-04
7.500000E-01 5.625000E-01 1.263727E-01
6.625000E-01 5.375000E-01 5.244886E-02
7.062500E-01 5.437500E-01 7.651380E-02
7.125000E-01 5.875000E-01 1.539072E-01
6.687500E-01 5.812500E-01 1.178185E-01
8.125000E-01 6.250000E-01 2.918519E-01
8.750000E-01 6.250000E-01 3.254535E-01
8.750000E-01 6.875000E-01 4.709593E-01
7.875000E-01 6.625000E-01 3.515882E-01
8.312500E-01 6.687500E-01 4.006058E-01
8.375000E-01 7.125000E-01 4.950621E-01
7.937500E-01 7.062500E-01 4.419034E-01
9.375000E-01 6.250000E-01 3.445518E-01
1.000000E+00 6.250000E-01 3.522493E-01
1.000000E+00 6.875000E-01 5.099845E-01
9.125000E-01 6.625000E-01 4.310852E-01
9.562500E-01 6.687500E-01 4.597580E-01
9.625000E-01 7.125000E-01 5.636369E-01
9.187500E-01 7.062500E-01 5.360591E-01
8.125000E-01 5.000000E-01 -6.300698E-05
8.750000E-01 5.000000E-01 4.597389E-04
8.750000E-01 5.625000E-01 1.654275E-01
7.875000E-01 5.375000E-01 8.454678E-02
8.312500E-01 5.437500E-01 1.089533E-01
8.375000E-01 5.875000E-01 2.171121E-01
7.937500E-01 5.812500E-01 1.852698E-01
9.375000E-01 5.000000E-01 2.471550E-04
1.000000E+00 5.000000E-01 4.811370E-04
1.000000E+00 5.625000E-01 1.793292E-01
9.125000E-01 5.375000E-01 1.038469E-01
9.562500E-01 5.437500E-01 1.248817E-01
9.625000E-01 5.875000E-01 2.473415E-01
9.187500E-01 5.812500E-01 2.245890E-01
0.000000E+00 3.750000E-01 3.522493E-01
6.250000E-02 3.750000E-01 3.445518E-01
[...]
CELL_DATA 896
SCALARS sol float 1
LOOKUP_TABLE default
-8.519219E-01
-8.550398E-01
-8.747824E-01
-8.212241E-01
-8.779626E-01
-8.246260E-01
-8.917078E-01
-7.983632E-01
-7.946145E-01
-8.779626E-01
-8.246260E-01
-7.948985E-01
-9.063571E-01
-7.534373E-01
-7.533066E-01
-8.917078E-01
-8.550398E-01
-7.948985E-01
-7.527271E-01
-9.063571E-01
-7.349903E-01
-7.088143E-01
-7.269895E-01
-8.747824E-01
-8.519219E-01
-7.527271E-01
-7.946145E-01
-7.237339E-01
-6.858128E-01
-6.666433E-01
-6.706309E-01
-8.212241E-01
-7.269895E-01
-7.237339E-01
-7.533066E-01
-6.715022E-01
-6.477706E-01
-6.111998E-01
-6.441369E-01
-7.983632E-01
-6.706309E-01
-6.715022E-01
-7.349903E-01
-6.308199E-01
-5.939714E-01
-5.689797E-01
-5.765700E-01
-5.890561E-01
-7.534373E-01
-6.477706E-01
-6.441369E-01
-6.308199E-01
-6.858128E-01
-5.831731E-01
-5.388962E-01
-5.005188E-01
-5.139853E-01
-5.388619E-01
-7.088143E-01
-5.939714E-01
-5.890561E-01
-5.831731E-01
-6.666433E-01
-5.270132E-01
-4.882504E-01
-5.160071E-01
-4.801541E-01
-4.349761E-01
-4.872823E-01
-5.388962E-01
-5.765700E-01
-5.388619E-01
-5.270132E-01
-6.111998E-01
-4.813165E-01
-4.145221E-01
-4.461204E-01
-4.121892E-01
-3.798909E-01
-4.305558E-01
-4.882504E-01
-5.160071E-01
-5.139853E-01
-4.872823E-01
-4.813165E-01
-5.689797E-01
-4.217045E-01
-3.722920E-01
-3.952812E-01
-4.122488E-01
-3.081298E-01
-3.916878E-01
-4.145221E-01
-4.461204E-01
-4.801541E-01
-4.305558E-01
-4.217045E-01
-5.005188E-01
-3.844005E-01
-3.026065E-01
-3.356723E-01
-3.505291E-01
-2.529748E-01
-2.707426E-01
-3.259644E-01
-3.722920E-01
-3.952812E-01
-4.122488E-01
-4.121892E-01
-3.916878E-01
-3.844005E-01
-4.349761E-01
-3.237430E-01
-2.430033E-01
-2.719205E-01
-3.031128E-01
-1.713919E-01
-1.964020E-01
-2.953236E-01
-3.026065E-01
-3.356723E-01
-3.505291E-01
-3.798909E-01
-3.259644E-01
-3.237430E-01
-2.815103E-01
-2.296961E-01
-1.751611E-01
-2.288386E-01
-2.451740E-01
-1.522063E-01
-9.490383E-02
-2.402523E-01
-2.430033E-01
-2.707426E-01
-2.719205E-01
-3.031128E-01
-3.081298E-01
-2.953236E-01
-2.815103E-01
-2.354292E-01
-1.527909E-01
-9.528295E-02
-1.647049E-01
-1.901044E-01
-7.579629E-02
-3.528649E-02
-1.942161E-01
-1.751611E-01
-2.296961E-01
-1.964020E-01
-2.288386E-01
-2.451740E-01
-2.529748E-01
-2.402523E-01
-2.354292E-01
-1.877160E-01
-1.308816E-01
-8.621990E-02
-4.011379E-02
-1.405287E-01
-1.713662E-01
4.186999E-02
-1.520207E-01
-9.528295E-02
-1.527909E-01
-1.522063E-01
-1.647049E-01
-1.901044E-01
-1.713919E-01
-1.942161E-01
-1.877160E-01
-1.503437E-01
-6.448487E-02
-3.115413E-02
3.485127E-02
-7.524766E-02
-1.108670E-01
1.015640E-01
7.632525E-02
-1.078590E-01
-4.011379E-02
-8.621990E-02
-1.308816E-01
-7.579629E-02
-1.405287E-01
-1.713662E-01
-9.490383E-02
-1.520207E-01
-1.503437E-01
-1.081949E-01
-3.302706E-02
3.645002E-02
8.991139E-02
-6.432409E-02
-8.955511E-02
1.838508E-01
1.511059E-01
-8.443032E-02
3.485127E-02
-3.115413E-02
-6.448487E-02
-3.528649E-02
-7.524766E-02
-1.108670E-01
-1.078590E-01
-1.081949E-01
-8.688177E-02
2.833269E-02
9.161353E-02
6.447904E-02
1.646212E-01
-2.217666E-02
-4.327784E-02
1.989374E-01
2.596400E-01
-4.368590E-02
8.991139E-02
7.632525E-02
3.645002E-02
-3.302706E-02
4.186999E-02
-6.432409E-02
-8.955511E-02
-8.443032E-02
-8.688177E-02
-5.199943E-02
7.047794E-02
1.638310E-01
1.262566E-01
2.384900E-01
2.558186E-02
-2.083731E-02
2.721608E-01
3.147142E-01
-3.256819E-02
1.646212E-01
9.161353E-02
1.511059E-01
6.447904E-02
2.833269E-02
1.015640E-01
-2.217666E-02
-4.327784E-02
-4.368590E-02
-5.199943E-02
-3.453234E-02
6.780028E-02
1.320631E-01
1.704451E-01
2.359977E-01
2.981981E-01
4.289338E-02
1.757539E-02
3.855197E-01
-9.757753E-03
2.384900E-01
1.638310E-01
1.989374E-01
1.262566E-01
7.047794E-02
1.838508E-01
2.558186E-02
-2.083731E-02
-3.256819E-02
-3.453234E-02
-1.542003E-02
1.189312E-01
1.869644E-01
2.314113E-01
2.781392E-01
3.670301E-01
8.226040E-02
4.038527E-02
4.406639E-01
4.117983E-01
1.088407E-02
2.981981E-01
2.359977E-01
1.704451E-01
2.721608E-01
1.320631E-01
6.780028E-02
2.596400E-01
4.289338E-02
1.757539E-02
-9.757753E-03
-1.542003E-02
-5.415576E-03
1.160798E-01
1.765102E-01
2.421241E-01
3.393037E-01
4.091660E-01
7.947150E-02
3.373210E-02
5.111265E-01
4.756341E-01
1.483933E-02
3.670301E-01
2.781392E-01
2.314113E-01
3.147142E-01
1.869644E-01
1.189312E-01
8.226040E-02
4.038527E-02
1.088407E-02
-5.415576E-03
4.201964E-03
1.555080E-01
1.993187E-01
2.975635E-01
3.990062E-01
3.480153E-01
4.793679E-01
1.070443E-01
5.599028E-02
5.198180E-01
5.746765E-01
2.580143E-02
4.091660E-01
4.117983E-01
3.393037E-01
2.421241E-01
3.855197E-01
1.765102E-01
1.160798E-01
7.947150E-02
3.373210E-02
1.483933E-02
4.201964E-03
4.201964E-03
1.492614E-01
2.415290E-01
3.203704E-01
4.555424E-01
3.980325E-01
5.359817E-01
9.021629E-02
4.410434E-02
5.787059E-01
6.168222E-01
1.483933E-02
4.793679E-01
3.990062E-01
4.756341E-01
3.480153E-01
2.975635E-01
4.406639E-01
1.993187E-01
1.555080E-01
1.070443E-01
5.599028E-02
2.580143E-02
4.201964E-03
-5.415576E-03
1.828667E-01
2.966870E-01
2.313236E-01
3.845880E-01
4.458571E-01
5.223161E-01
5.911358E-01
9.021629E-02
5.599028E-02
6.704944E-01
1.088407E-02
5.359817E-01
4.555424E-01
5.198180E-01
3.980325E-01
3.203704E-01
5.111265E-01
2.415290E-01
1.492614E-01
9.021629E-02
4.410434E-02
1.483933E-02
-5.415576E-03
-1.542003E-02
1.828667E-01
3.306670E-01
2.599035E-01
4.207531E-01
4.921119E-01
5.451197E-01
6.433541E-01
1.070443E-01
3.373210E-02
7.126895E-01
6.845964E-01
-9.757753E-03
5.911358E-01
5.223161E-01
4.458571E-01
5.787059E-01
3.845880E-01
2.966870E-01
5.746765E-01
2.313236E-01
1.828667E-01
9.021629E-02
5.599028E-02
1.088407E-02
-1.542003E-02
-3.453234E-02
1.492614E-01
2.313236E-01
3.040889E-01
3.905154E-01
4.804524E-01
5.905332E-01
6.661523E-01
7.947150E-02
4.038527E-02
7.605958E-01
7.277664E-01
-3.256819E-02
6.433541E-01
5.451197E-01
4.921119E-01
6.168222E-01
4.207531E-01
3.306670E-01
2.599035E-01
1.828667E-01
1.070443E-01
3.373210E-02
-9.757753E-03
-3.453234E-02
-5.199943E-02
1.555080E-01
2.415290E-01
3.306670E-01
3.905154E-01
5.215324E-01
6.456818E-01
5.786054E-01
7.211539E-01
8.226040E-02
1.757539E-02
7.615707E-01
8.022223E-01
-4.368590E-02
6.661523E-01
6.845964E-01
5.905332E-01
4.804524E-01
6.704944E-01
3.905154E-01
3.040889E-01
2.313236E-01
1.492614E-01
7.947150E-02
4.038527E-02
-3.256819E-02
-5.199943E-02
-8.688177E-02
1.160798E-01
1.993187E-01
2.966870E-01
4.207531E-01
5.215324E-01
6.779315E-01
6.092494E-01
7.518947E-01
4.289338E-02
-2.083731E-02
7.971527E-01
8.250198E-01
-8.443032E-02
7.211539E-01
6.456818E-01
7.277664E-01
5.786054E-01
5.215324E-01
7.126895E-01
3.905154E-01
3.306670E-01
2.415290E-01
1.555080E-01
8.226040E-02
1.757539E-02
-4.368590E-02
-8.688177E-02
-1.081949E-01
1.189312E-01
1.765102E-01
3.203704E-01
4.804524E-01
3.845880E-01
5.786054E-01
6.534269E-01
7.291428E-01
7.940892E-01
2.558186E-02
-4.327784E-02
8.533756E-01
-1.078590E-01
7.518947E-01
6.779315E-01
7.615707E-01
6.092494E-01
5.215324E-01
7.605958E-01
4.207531E-01
2.966870E-01
1.993187E-01
1.160798E-01
4.289338E-02
-2.083731E-02
-8.443032E-02
-1.081949E-01
-1.503437E-01
6.780028E-02
1.869644E-01
2.975635E-01
4.921119E-01
3.980325E-01
5.905332E-01
6.779315E-01
7.291428E-01
8.217407E-01
-2.217666E-02
-8.955511E-02
8.761753E-01
8.531600E-01
-1.520207E-01
7.940892E-01
7.291428E-01
6.534269E-01
7.971527E-01
5.786054E-01
4.804524E-01
8.022223E-01
3.845880E-01
3.203704E-01
1.765102E-01
1.189312E-01
2.558186E-02
-4.327784E-02
-1.078590E-01
-1.503437E-01
-1.877160E-01
7.047794E-02
2.421241E-01
1.320631E-01
3.480153E-01
4.458571E-01
5.451197E-01
6.456818E-01
7.518947E-01
8.217407E-01
-6.432409E-02
-1.108670E-01
8.942089E-01
8.690915E-01
-1.942161E-01
8.217407E-01
7.291428E-01
6.779315E-01
8.250198E-01
5.905332E-01
4.921119E-01
3.980325E-01
2.975635E-01
1.869644E-01
6.780028E-02
-2.217666E-02
-8.955511E-02
-1.520207E-01
-1.877160E-01
-2.354292E-01
2.833269E-02
2.314113E-01
1.262566E-01
3.393037E-01
4.555424E-01
5.223161E-01
6.661523E-01
7.940892E-01
7.211539E-01
8.531600E-01
-7.524766E-02
-1.713662E-01
8.873408E-01
9.074740E-01
-2.402523E-01
8.217407E-01
8.531600E-01
7.518947E-01
6.456818E-01
8.533756E-01
5.451197E-01
4.458571E-01
3.480153E-01
2.421241E-01
1.320631E-01
7.047794E-02
-6.432409E-02
-1.108670E-01
-1.942161E-01
-2.354292E-01
-2.815103E-01
6.447904E-02
-3.302706E-02
1.704451E-01
2.781392E-01
3.990062E-01
5.359817E-01
6.433541E-01
7.971527E-01
7.277664E-01
8.533756E-01
-1.405287E-01
-1.901044E-01
8.942089E-01
9.074740E-01
-2.953236E-01
8.531600E-01
7.940892E-01
8.690915E-01
7.211539E-01
6.661523E-01
8.761753E-01
5.223161E-01
4.555424E-01
3.393037E-01
2.314113E-01
1.262566E-01
2.833269E-02
-7.524766E-02
-1.713662E-01
-2.402523E-01
-2.815103E-01
-3.237430E-01
3.645002E-02
-6.448487E-02
1.638310E-01
2.359977E-01
4.091660E-01
5.911358E-01
4.793679E-01
6.845964E-01
7.615707E-01
8.250198E-01
8.761753E-01
-1.647049E-01
-2.451740E-01
-3.259644E-01
8.533756E-01
7.971527E-01
8.873408E-01
7.277664E-01
6.433541E-01
8.942089E-01
5.359817E-01
3.990062E-01
2.781392E-01
1.704451E-01
6.447904E-02
-3.302706E-02
-1.405287E-01
-1.901044E-01
-2.953236E-01
-3.237430E-01
-3.844005E-01
9.161353E-02
-3.115413E-02
-1.308816E-01
2.384900E-01
3.670301E-01
5.787059E-01
4.756341E-01
6.704944E-01
7.605958E-01
8.022223E-01
-2.288386E-01
-3.031128E-01
-3.916878E-01
8.761753E-01
8.250198E-01
7.615707E-01
8.942089E-01
6.845964E-01
5.911358E-01
9.074740E-01
4.793679E-01
4.091660E-01
2.359977E-01
1.638310E-01
3.645002E-02
-6.448487E-02
-1.647049E-01
-2.451740E-01
-3.259644E-01
-3.844005E-01
-4.217045E-01
8.991139E-02
-8.621990E-02
-1.527909E-01
2.981981E-01
1.646212E-01
4.117983E-01
5.198180E-01
6.168222E-01
7.126895E-01
-2.719205E-01
-3.505291E-01
-4.305558E-01
8.022223E-01
7.605958E-01
9.074740E-01
6.704944E-01
5.787059E-01
4.756341E-01
3.670301E-01
2.384900E-01
9.161353E-02
-3.115413E-02
-1.308816E-01
-2.288386E-01
-3.031128E-01
-3.916878E-01
-4.217045E-01
-4.813165E-01
3.485127E-02
-9.528295E-02
-2.296961E-01
2.721608E-01
1.511059E-01
3.855197E-01
5.111265E-01
5.746765E-01
-3.356723E-01
-4.122488E-01
-4.872823E-01
7.126895E-01
6.168222E-01
5.198180E-01
4.117983E-01
2.981981E-01
1.646212E-01
8.991139E-02
-8.621990E-02
-1.527909E-01
-2.719205E-01
-3.505291E-01
-4.305558E-01
-4.813165E-01
-5.270132E-01
7.632525E-02
-4.011379E-02
-1.751611E-01
-2.430033E-01
1.989374E-01
3.147142E-01
4.406639E-01
-3.952812E-01
-4.461204E-01
-5.388619E-01
5.746765E-01
5.111265E-01
3.855197E-01
2.721608E-01
1.511059E-01
3.485127E-02
-9.528295E-02
-2.296961E-01
-3.356723E-01
-4.122488E-01
-4.872823E-01
-5.270132E-01
-5.831731E-01
4.186999E-02
-7.579629E-02
-1.964020E-01
-3.026065E-01
1.838508E-01
2.596400E-01
-4.145221E-01
-5.160071E-01
-5.890561E-01
4.406639E-01
3.147142E-01
1.989374E-01
7.632525E-02
-4.011379E-02
-1.751611E-01
-2.430033E-01
-3.952812E-01
-4.461204E-01
-5.388619E-01
-5.831731E-01
-6.308199E-01
1.015640E-01
-3.528649E-02
-1.522063E-01
-2.707426E-01
-3.722920E-01
-4.882504E-01
-5.388962E-01
-6.441369E-01
2.596400E-01
1.838508E-01
4.186999E-02
-7.579629E-02
-1.964020E-01
-3.026065E-01
-4.145221E-01
-5.160071E-01
-5.890561E-01
-6.308199E-01
-6.715022E-01
-9.490383E-02
-1.713919E-01
-3.081298E-01
-4.121892E-01
-5.139853E-01
-5.939714E-01
-6.706309E-01
1.015640E-01
-3.528649E-02
-1.522063E-01
-2.707426E-01
-3.722920E-01
-4.882504E-01
-5.388962E-01
-6.441369E-01
-6.715022E-01
-7.237339E-01
-2.529748E-01
-3.798909E-01
-4.801541E-01
-5.765700E-01
-6.477706E-01
-7.269895E-01
-9.490383E-02
-1.713919E-01
-3.081298E-01
-4.121892E-01
-5.139853E-01
-5.939714E-01
-6.706309E-01
-7.237339E-01
-7.527271E-01
-4.349761E-01
-5.005188E-01
-6.111998E-01
-6.858128E-01
-7.533066E-01
-2.529748E-01
-3.798909E-01
-4.801541E-01
-5.765700E-01
-6.477706E-01
-7.269895E-01
-7.527271E-01
-7.948985E-01
-5.689797E-01
-6.666433E-01
-7.349903E-01
-7.946145E-01
-4.349761E-01
-5.005188E-01
-6.111998E-01
-6.858128E-01
-7.533066E-01
-7.948985E-01
-8.246260E-01
-7.088143E-01
-7.534373E-01
-8.212241E-01
-5.689797E-01
-6.666433E-01
-7.349903E-01
-7.946145E-01
-8.246260E-01
-8.550398E-01
-7.983632E-01
-8.519219E-01
-7.088143E-01
-7.534373E-01
-8.212241E-01
-8.550398E-01
-8.779626E-01
-8.747824E-01
-7.983632E-01
-8.519219E-01
-8.779626E-01
-8.917078E-01
-8.747824E-01
-8.917078E-01
-9.063571E-01
-9.063571E-01
