# vtk DataFile Version 2.0
Grille
ASCII
DATASET POLYDATA
POINTS 481 float
0.000000E+00 8.750000E-01 -5.348785E-01
6.250000E-02 8.750000E-01 -5.235363E-01
1.250000E-01 8.750000E-01 -4.940925E-01
1.250000E-01 9.375000E-01 -5.235363E-01
1.250000E-01 1.000000E+00 -5.348785E-01
6.250000E-02 1.000000E+00 -5.667666E-01
0.000000E+00 1.000000E+00 -5.793090E-01
0.000000E+00 9.375000E-01 -5.667666E-01
3.750000E-02 9.125000E-01 -5.516061E-01
8.125000E-02 9.187500E-01 -5.407739E-01
8.750000E-02 9.625000E-01 -5.516061E-01
4.375000E-02 9.562500E-01 -5.668841E-01
1.875000E-01 8.750000E-01 -4.437885E-01
2.500000E-01 8.750000E-01 -3.779821E-01
2.500000E-01 9.375000E-01 -4.005590E-01
2.500000E-01 1.000000E+00 -4.091727E-01
1.875000E-01 1.000000E+00 -4.803057E-01
1.625000E-01 9.125000E-01 -4.845577E-01
2.062500E-01 9.187500E-01 -4.454219E-01
2.125000E-01 9.625000E-01 -4.499214E-01
1.687500E-01 9.562500E-01 -4.935550E-01
0.000000E+00 7.500000E-01 -4.091727E-01
6.250000E-02 7.500000E-01 -4.005590E-01
1.250000E-01 7.500000E-01 -3.779821E-01
1.250000E-01 8.125000E-01 -4.437885E-01
0.000000E+00 8.125000E-01 -4.803057E-01
3.750000E-02 7.875000E-01 -4.499214E-01
8.125000E-02 7.937500E-01 -4.454219E-01
8.750000E-02 8.375000E-01 -4.845577E-01
4.375000E-02 8.312500E-01 -4.935550E-01
1.875000E-01 7.500000E-01 -3.396292E-01
2.500000E-01 7.500000E-01 -2.891204E-01
2.500000E-01 8.125000E-01 -3.396292E-01
1.625000E-01 7.875000E-01 -3.953203E-01
2.062500E-01 7.937500E-01 -3.668574E-01
2.125000E-01 8.375000E-01 -3.953203E-01
1.687500E-01 8.312500E-01 -4.297302E-01
3.125000E-01 8.750000E-01 -2.964100E-01
3.750000E-01 8.750000E-01 -2.042632E-01
3.750000E-01 9.375000E-01 -2.165519E-01
3.750000E-01 1.000000E+00 -2.211336E-01
3.125000E-01 1.000000E+00 -3.207197E-01
2.875000E-01 9.125000E-01 -3.436854E-01
3.312500E-01 9.187500E-01 -2.822097E-01
3.375000E-01 9.625000E-01 -2.797103E-01
2.937500E-01 9.562500E-01 -3.450753E-01
4.375000E-01 8.750000E-01 -1.038403E-01
5.000000E-01 8.750000E-01 6.202329E-04
5.000000E-01 9.375000E-01 4.860140E-04
5.000000E-01 1.000000E+00 6.323216E-04
4.375000E-01 1.000000E+00 -1.122522E-01
4.125000E-01 9.125000E-01 -1.504316E-01
4.562500E-01 9.187500E-01 -7.597206E-02
4.625000E-01 9.625000E-01 -6.685705E-02
4.187500E-01 9.562500E-01 -1.440072E-01
3.125000E-01 7.500000E-01 -2.269013E-01
3.750000E-01 7.500000E-01 -1.561587E-01
3.750000E-01 8.125000E-01 -1.836880E-01
2.875000E-01 7.875000E-01 -2.804432E-01
3.312500E-01 7.937500E-01 -2.323583E-01
3.375000E-01 8.375000E-01 -2.458242E-01
2.937500E-01 8.312500E-01 -3.004011E-01
4.375000E-01 7.500000E-01 -7.955018E-02
5.000000E-01 7.500000E-01 6.541930E-04
5.000000E-01 8.125000E-01 2.904984E-04
4.125000E-01 7.875000E-01 -1.227939E-01
4.562500E-01 7.937500E-01 -6.240983E-02
4.625000E-01 8.375000E-01 -5.883334E-02
4.187500E-01 8.312500E-01 -1.252672E-01
0.000000E+00 6.250000E-01 -2.211336E-01
6.250000E-02 6.250000E-01 -2.165519E-01
1.250000E-01 6.250000E-01 -2.042632E-01
1.250000E-01 6.875000E-01 -2.964100E-01
0.000000E+00 6.875000E-01 -3.207197E-01
3.750000E-02 6.625000E-01 -2.797103E-01
8.125000E-02 6.687500E-01 -2.822097E-01
8.750000E-02 7.125000E-01 -3.436854E-01
4.375000E-02 7.062500E-01 -3.450753E-01
1.875000E-01 6.250000E-01 -1.836880E-01
2.500000E-01 6.250000E-01 -1.561587E-01
2.500000E-01 6.875000E-01 -2.269013E-01
1.625000E-01 6.625000E-01 -2.458242E-01
2.062500E-01 6.687500E-01 -2.323583E-01
2.125000E-01 7.125000E-01 -2.804432E-01
1.687500E-01 7.062500E-01 -3.004011E-01
0.000000E+00 5.000000E-01 6.323216E-04
6.250000E-02 5.000000E-01 4.860140E-04
1.250000E-01 5.000000E-01 6.202329E-04
1.250000E-01 5.625000E-01 -1.038403E-01
0.000000E+00 5.625000E-01 -1.122522E-01
3.750000E-02 5.375000E-01 -6.685705E-02
8.125000E-02 5.437500E-01 -7.597206E-02
8.750000E-02 5.875000E-01 -1.504316E-01
4.375000E-02 5.812500E-01 -1.440072E-01
1.875000E-01 5.000000E-01 2.904984E-04
2.500000E-01 5.000000E-01 6.541930E-04
2.500000E-01 5.625000E-01 -7.955018E-02
1.625000E-01 5.375000E-01 -5.883334E-02
2.062500E-01 5.437500E-01 -6.240983E-02
2.125000E-01 5.875000E-01 -1.227939E-01
1.687500E-01 5.812500E-01 -1.252672E-01
3.125000E-01 6.250000E-01 -1.227602E-01
3.750000E-01 6.250000E-01 -8.418884E-02
3.750000E-01 6.875000E-01 -1.227602E-01
2.875000E-01 6.625000E-01 -1.744155E-01
3.312500E-01 6.687500E-01 -1.470387E-01
3.375000E-01 7.125000E-01 -1.744155E-01
2.937500E-01 7.062500E-01 -2.099001E-01
4.375000E-01 6.250000E-01 -4.305611E-02
5.000000E-01 6.250000E-01 6.822890E-04
5.000000E-01 6.875000E-01 1.514842E-04
4.125000E-01 6.625000E-01 -7.636632E-02
4.562500E-01 6.687500E-01 -3.924951E-02
4.625000E-01 7.125000E-01 -4.175318E-02
4.187500E-01 7.062500E-01 -8.735960E-02
3.125000E-01 5.000000E-01 1.514842E-04
3.750000E-01 5.000000E-01 6.822890E-04
3.750000E-01 5.625000E-01 -4.305611E-02
2.875000E-01 5.375000E-01 -4.175318E-02
3.312500E-01 5.437500E-01 -3.924951E-02
3.375000E-01 5.875000E-01 -7.636632E-02
2.937500E-01 5.812500E-01 -8.735960E-02
4.375000E-01 5.000000E-01 7.884510E-05
5.000000E-01 5.000000E-01 6.929940E-04
5.000000E-01 5.625000E-01 7.884510E-05
4.125000E-01 5.375000E-01 -1.822566E-02
4.562500E-01 5.437500E-01 -1.002562E-02
4.625000E-01 5.875000E-01 -1.822566E-02
4.187500E-01 5.812500E-01 -3.606264E-02
5.625000E-01 8.750000E-01 1.046065E-01
6.250000E-01 8.750000E-01 2.054780E-01
6.250000E-01 9.375000E-01 2.175161E-01
6.250000E-01 1.000000E+00 2.223672E-01
5.625000E-01 1.000000E+00 1.133691E-01
5.375000E-01 9.125000E-01 6.578984E-02
5.812500E-01 9.187500E-01 1.418981E-01
5.875000E-01 9.625000E-01 1.562399E-01
5.437500E-01 9.562500E-01 7.904894E-02
6.875000E-01 8.750000E-01 2.971964E-01
7.500000E-01 8.750000E-01 3.791208E-01
7.500000E-01 9.375000E-01 4.014942E-01
7.500000E-01 1.000000E+00 4.103100E-01
6.875000E-01 1.000000E+00 3.217954E-01
6.625000E-01 9.125000E-01 2.720622E-01
7.062500E-01 9.187500E-01 3.382313E-01
7.125000E-01 9.625000E-01 3.556145E-01
6.687500E-01 9.562500E-01 2.901359E-01
5.625000E-01 7.500000E-01 7.998813E-02
6.250000E-01 7.500000E-01 1.574436E-01
6.250000E-01 8.125000E-01 1.842971E-01
5.375000E-01 7.875000E-01 5.362389E-02
5.812500E-01 7.937500E-01 1.171135E-01
5.875000E-01 8.375000E-01 1.371852E-01
5.437500E-01 8.312500E-01 6.900869E-02
6.875000E-01 7.500000E-01 2.274254E-01
7.500000E-01 7.500000E-01 2.903411E-01
7.500000E-01 8.125000E-01 3.403188E-01
6.625000E-01 7.875000E-01 2.219518E-01
7.062500E-01 7.937500E-01 2.788811E-01
7.125000E-01 8.375000E-01 3.123892E-01
6.687500E-01 8.312500E-01 2.528498E-01
8.125000E-01 8.750000E-01 4.446064E-01
8.750000E-01 8.750000E-01 4.951099E-01
8.750000E-01 9.375000E-01 5.243970E-01
8.750000E-01 1.000000E+00 5.358271E-01
8.125000E-01 1.000000E+00 4.812863E-01
7.875000E-01 9.125000E-01 4.369781E-01
8.312500E-01 9.187500E-01 4.831298E-01
8.375000E-01 9.625000E-01 5.009023E-01
7.937500E-01 9.562500E-01 4.571107E-01
9.375000E-01 8.750000E-01 5.243970E-01
1.000000E+00 8.750000E-01 5.358271E-01
1.000000E+00 9.375000E-01 5.675115E-01
1.000000E+00 1.000000E+00 5.796085E-01
9.375000E-01 1.000000E+00 5.675115E-01
9.125000E-01 9.125000E-01 5.354196E-01
9.562500E-01 9.187500E-01 5.545239E-01
9.625000E-01 9.625000E-01 5.699290E-01
9.187500E-01 9.562500E-01 5.545239E-01
8.125000E-01 7.500000E-01 3.403188E-01
8.750000E-01 7.500000E-01 3.791208E-01
8.750000E-01 8.125000E-01 4.446064E-01
7.875000E-01 7.875000E-01 3.565649E-01
8.312500E-01 7.937500E-01 3.982677E-01
8.375000E-01 8.375000E-01 4.401054E-01
7.937500E-01 8.312500E-01 3.982677E-01
9.375000E-01 7.500000E-01 4.014942E-01
1.000000E+00 7.500000E-01 4.103100E-01
1.000000E+00 8.125000E-01 4.812863E-01
9.125000E-01 7.875000E-01 4.369781E-01
9.562500E-01 7.937500E-01 4.571107E-01
9.625000E-01 8.375000E-01 5.009023E-01
9.187500E-01 8.312500E-01 4.831298E-01
5.625000E-01 6.250000E-01 4.328540E-02
6.250000E-01 6.250000E-01 8.553152E-02
6.250000E-01 6.875000E-01 1.231196E-01
5.375000E-01 6.625000E-01 3.339049E-02
5.812500E-01 6.687500E-01 7.459560E-02
5.875000E-01 7.125000E-01 9.734397E-02
5.437500E-01 7.062500E-01 4.855993E-02
6.875000E-01 6.250000E-01 1.231196E-01
7.500000E-01 6.250000E-01 1.574436E-01
7.500000E-01 6.875000E-01 2.274254E-01
6.625000E-01 6.625000E-01 1.381446E-01
7.062500E-01 6.687500E-01 1.771654E-01
7.125000E-01 7.125000E-01 2.217004E-01
6.687500E-01 7.062500E-01 1.771654E-01
5.625000E-01 5.000000E-01 7.884510E-05
6.250000E-01 5.000000E-01 6.822890E-04
6.250000E-01 5.625000E-01 4.328540E-02
5.375000E-01 5.375000E-01 8.161622E-03
5.812500E-01 5.437500E-01 2.080871E-02
5.875000E-01 5.875000E-01 4.277296E-02
5.437500E-01 5.812500E-01 2.080871E-02
6.875000E-01 5.000000E-01 1.514842E-04
7.500000E-01 5.000000E-01 6.541930E-04
7.500000E-01 5.625000E-01 7.998813E-02
6.625000E-01 5.375000E-01 3.339049E-02
7.062500E-01 5.437500E-01 4.855993E-02
7.125000E-01 5.875000E-01 9.734397E-02
6.687500E-01 5.812500E-01 7.459560E-02
8.125000E-01 6.250000E-01 1.842971E-01
8.750000E-01 6.250000E-01 2.054780E-01
8.750000E-01 6.875000E-01 2.971964E-01
7.875000E-01 6.625000E-01 2.219518E-01
8.312500E-01 6.687500E-01 2.528498E-01
8.375000E-01 7.125000E-01 3.123892E-01
7.937500E-01 7.062500E-01 2.788811E-01
9.375000E-01 6.250000E-01 2.175161E-01
1.000000E+00 6.250000E-01 2.223672E-01
1.000000E+00 6.875000E-01 3.217954E-01
9.125000E-01 6.625000E-01 2.720622E-01
9.562500E-01 6.687500E-01 2.901359E-01
9.625000E-01 7.125000E-01 3.556145E-01
9.187500E-01 7.062500E-01 3.382313E-01
8.125000E-01 5.000000E-01 2.904984E-04
8.750000E-01 5.000000E-01 6.202329E-04
8.750000E-01 5.625000E-01 1.046065E-01
7.875000E-01 5.375000E-01 5.362389E-02
8.312500E-01 5.437500E-01 6.900869E-02
8.375000E-01 5.875000E-01 1.371852E-01
7.937500E-01 5.812500E-01 1.171135E-01
9.375000E-01 5.000000E-01 4.860140E-04
1.000000E+00 5.000000E-01 6.323216E-04
1.000000E+00 5.625000E-01 1.133691E-01
9.125000E-01 5.375000E-01 6.578984E-02
9.562500E-01 5.437500E-01 7.904894E-02
9.625000E-01 5.875000E-01 1.562399E-01
9.187500E-01 5.812500E-01 1.418981E-01
0.000000E+00 3.750000E-01 2.223672E-01
6.250000E-02 3.750000E-01 2.175161E-01
[...]
CELL_DATA 896
SCALARS sol float 1
LOOKUP_TABLE default
-5.366736E-01
-5.386388E-01
-5.510837E-01
-5.173232E-01
-5.530880E-01
-5.194676E-01
-5.617522E-01
-5.029130E-01
-5.005497E-01
-5.530880E-01
-5.194676E-01
-5.007288E-01
-5.709866E-01
-4.745940E-01
-4.745115E-01
-5.617522E-01
-5.386388E-01
-5.007288E-01
-4.741462E-01
-5.709866E-01
-4.629661E-01
-4.464666E-01
-4.579227E-01
-5.510837E-01
-5.366736E-01
-4.741462E-01
-5.005497E-01
-4.558704E-01
-4.319674E-01
-4.198844E-01
-4.223975E-01
-5.173232E-01
-4.579227E-01
-4.558704E-01
-4.745115E-01
-4.229463E-01
-4.079877E-01
-3.849357E-01
-4.056970E-01
-5.029130E-01
-4.223975E-01
-4.229463E-01
-4.629661E-01
-3.973026E-01
-3.740755E-01
-3.583225E-01
-3.631065E-01
-3.709772E-01
-4.745940E-01
-4.079877E-01
-4.056970E-01
-3.973026E-01
-4.319674E-01
-3.672689E-01
-3.393592E-01
-3.151684E-01
-3.236568E-01
-3.393375E-01
-4.464666E-01
-3.740755E-01
-3.709772E-01
-3.672689E-01
-4.198844E-01
-3.318690E-01
-3.074350E-01
-3.249311E-01
-3.023317E-01
-2.738545E-01
-3.068245E-01
-3.393592E-01
-3.631065E-01
-3.393375E-01
-3.318690E-01
-3.849357E-01
-3.030642E-01
-2.609609E-01
-2.808784E-01
-2.594906E-01
-2.391319E-01
-2.710675E-01
-3.074350E-01
-3.249311E-01
-3.236568E-01
-3.068245E-01
-3.030642E-01
-3.583225E-01
-2.654883E-01
-2.343416E-01
-2.488325E-01
-2.595279E-01
-1.938976E-01
-2.465676E-01
-2.609609E-01
-2.808784E-01
-3.023317E-01
-2.710675E-01
-2.654883E-01
-3.151684E-01
-2.419740E-01
-1.904156E-01
-2.112585E-01
-2.206235E-01
-1.591310E-01
-1.703302E-01
-2.051394E-01
-2.343416E-01
-2.488325E-01
-2.595279E-01
-2.594906E-01
-2.465676E-01
-2.419740E-01
-2.738545E-01
-2.037390E-01
-1.528450E-01
-1.710728E-01
-1.907350E-01
-1.077055E-01
-1.234703E-01
-1.858252E-01
-1.904156E-01
-2.112585E-01
-2.206235E-01
-2.391319E-01
-2.051394E-01
-2.037390E-01
-1.771181E-01
-1.444569E-01
-1.100813E-01
-1.439163E-01
-1.542135E-01
-9.561210E-02
-5.949230E-02
-1.511115E-01
-1.528450E-01
-1.703302E-01
-1.710728E-01
-1.907350E-01
-1.938976E-01
-1.858252E-01
-1.771181E-01
-1.480715E-01
-9.598028E-02
-5.973072E-02
-1.034903E-01
-1.195009E-01
-4.744770E-02
-2.191290E-02
-1.220928E-01
-1.100813E-01
-1.444569E-01
-1.234703E-01
-1.439163E-01
-1.542135E-01
-1.591310E-01
-1.511115E-01
-1.480715E-01
-1.179959E-01
-8.217011E-02
-5.401782E-02
-2.495527E-02
-8.825129E-02
-1.076895E-01
2.672242E-02
-9.549538E-02
-5.973072E-02
-9.598028E-02
-9.561210E-02
-1.034903E-01
-1.195009E-01
-1.077055E-01
-1.220928E-01
-1.179959E-01
-9.443846E-02
-4.031756E-02
-1.930753E-02
2.229870E-02
-4.710194E-02
-6.955432E-02
6.435013E-02
4.844160E-02
-6.765847E-02
-2.495527E-02
-5.401782E-02
-8.217011E-02
-4.744770E-02
-8.825129E-02
-1.076895E-01
-5.949230E-02
-9.549538E-02
-9.443846E-02
-6.787042E-02
-2.048838E-02
2.330647E-02
5.700552E-02
-4.021639E-02
-5.612076E-02
1.162193E-01
9.557896E-02
-5.289065E-02
2.229870E-02
-1.930753E-02
-4.031756E-02
-2.191290E-02
-4.710194E-02
-6.955432E-02
-6.765847E-02
-6.787042E-02
-5.443586E-02
1.818953E-02
5.807847E-02
4.097436E-02
1.040982E-01
-1.364917E-02
-2.695040E-02
1.257290E-01
1.639921E-01
-2.720778E-02
5.700552E-02
4.844160E-02
2.330647E-02
-2.048838E-02
2.672242E-02
-4.021639E-02
-5.612076E-02
-5.289065E-02
-5.443586E-02
-3.244814E-02
4.475541E-02
1.036001E-01
7.991536E-02
1.506609E-01
1.645520E-02
-1.280525E-02
1.718847E-01
1.987077E-01
-2.019983E-02
1.040982E-01
5.807847E-02
9.557896E-02
4.097436E-02
1.818953E-02
6.435013E-02
-1.364917E-02
-2.695040E-02
-2.720778E-02
-3.244814E-02
-2.143797E-02
4.306742E-02
8.357517E-02
1.077691E-01
1.490899E-01
1.882974E-01
2.736730E-02
1.140809E-02
2.433397E-01
-5.821508E-03
1.506609E-01
1.036001E-01
1.257290E-01
7.991536E-02
4.475541E-02
1.162193E-01
1.645520E-02
-1.280525E-02
-2.019983E-02
-2.143797E-02
-9.390810E-03
7.529734E-02
1.181817E-01
1.461986E-01
1.756535E-01
2.316854E-01
5.218200E-02
2.578606E-02
2.780995E-01
2.599047E-01
7.189947E-03
1.882974E-01
1.490899E-01
1.077691E-01
1.718847E-01
8.357517E-02
4.306742E-02
1.639921E-01
2.736730E-02
1.140809E-02
-5.821508E-03
-9.390810E-03
-3.084593E-03
7.349983E-02
1.115919E-01
1.529514E-01
2.142083E-01
2.582455E-01
5.042383E-02
2.159213E-02
3.225153E-01
3.001431E-01
9.683058E-03
2.316854E-01
1.756535E-01
1.461986E-01
1.987077E-01
1.181817E-01
7.529734E-02
5.218200E-02
2.578606E-02
7.189947E-03
-3.084593E-03
2.977820E-03
9.835306E-02
1.259691E-01
1.878975E-01
2.518414E-01
2.196996E-01
3.024966E-01
6.780417E-02
3.562236E-02
3.279939E-01
3.625733E-01
1.659301E-02
2.582455E-01
2.599047E-01
2.142083E-01
1.529514E-01
2.433397E-01
1.115919E-01
7.349983E-02
5.042383E-02
2.159213E-02
9.683058E-03
2.977820E-03
2.977820E-03
9.441557E-02
1.525762E-01
2.022736E-01
2.874784E-01
2.512275E-01
3.381828E-01
5.719663E-02
2.813012E-02
3.651133E-01
3.891396E-01
9.683058E-03
3.024966E-01
2.518414E-01
3.001431E-01
2.196996E-01
1.878975E-01
2.780995E-01
1.259691E-01
9.835306E-02
6.780417E-02
3.562236E-02
1.659301E-02
2.977820E-03
-3.084593E-03
1.155986E-01
1.873448E-01
1.461432E-01
2.427527E-01
2.813733E-01
3.295688E-01
3.729488E-01
5.719663E-02
3.562236E-02
4.229716E-01
7.189947E-03
3.381828E-01
2.874784E-01
3.279939E-01
2.512275E-01
2.022736E-01
3.225153E-01
1.525762E-01
9.441557E-02
5.719663E-02
2.813012E-02
9.683058E-03
-3.084593E-03
-9.390810E-03
1.155986E-01
2.087637E-01
1.641585E-01
2.655492E-01
3.105297E-01
3.439429E-01
4.058644E-01
6.780417E-02
2.159213E-02
4.495690E-01
4.318610E-01
-5.821508E-03
3.729488E-01
3.295688E-01
2.813733E-01
3.651133E-01
2.427527E-01
1.873448E-01
3.625733E-01
1.461432E-01
1.155986E-01
5.719663E-02
3.562236E-02
7.189947E-03
-9.390810E-03
-2.143797E-02
9.441557E-02
1.461432E-01
1.920104E-01
2.464890E-01
3.031803E-01
3.725691E-01
4.202351E-01
5.042383E-02
2.578606E-02
4.797664E-01
4.590729E-01
-2.019983E-02
4.058644E-01
3.439429E-01
3.105297E-01
3.891396E-01
2.655492E-01
2.087637E-01
1.641585E-01
1.155986E-01
6.780417E-02
2.159213E-02
-5.821508E-03
-2.143797E-02
-3.244814E-02
9.835306E-02
1.525762E-01
2.087637E-01
2.464890E-01
3.290749E-01
4.073316E-01
3.650505E-01
4.549048E-01
5.218200E-02
1.140809E-02
4.803809E-01
5.060052E-01
-2.720778E-02
4.202351E-01
4.318610E-01
3.725691E-01
3.031803E-01
4.229716E-01
2.464890E-01
1.920104E-01
1.461432E-01
9.441557E-02
5.042383E-02
2.578606E-02
-2.019983E-02
-3.244814E-02
-5.443586E-02
7.349983E-02
1.259691E-01
1.873448E-01
2.655492E-01
3.290749E-01
4.276598E-01
3.843668E-01
4.742820E-01
2.736730E-02
-1.280525E-02
5.028097E-01
5.203755E-01
-5.289065E-02
4.549048E-01
4.073316E-01
4.590729E-01
3.650505E-01
3.290749E-01
4.495690E-01
2.464890E-01
2.087637E-01
1.525762E-01
9.835306E-02
5.218200E-02
1.140809E-02
-2.720778E-02
-5.443586E-02
-6.787042E-02
7.529734E-02
1.115919E-01
2.022736E-01
3.031803E-01
2.427527E-01
3.650505E-01
4.122136E-01
4.599405E-01
5.008789E-01
1.645520E-02
-2.695040E-02
5.382493E-01
-6.765847E-02
4.742820E-01
4.276598E-01
4.803809E-01
3.843668E-01
3.290749E-01
4.797664E-01
2.655492E-01
1.873448E-01
1.259691E-01
7.349983E-02
2.736730E-02
-1.280525E-02
-5.289065E-02
-6.787042E-02
-9.443846E-02
4.306742E-02
1.181817E-01
1.878975E-01
3.105297E-01
2.512275E-01
3.725691E-01
4.276598E-01
4.599405E-01
5.183088E-01
-1.364917E-02
-5.612076E-02
5.526208E-01
5.381135E-01
-9.549538E-02
5.008789E-01
4.599405E-01
4.122136E-01
5.028097E-01
3.650505E-01
3.031803E-01
5.060052E-01
2.427527E-01
2.022736E-01
1.115919E-01
7.529734E-02
1.645520E-02
-2.695040E-02
-6.765847E-02
-9.443846E-02
-1.179959E-01
4.475541E-02
1.529514E-01
8.357517E-02
2.196996E-01
2.813733E-01
3.439429E-01
4.073316E-01
4.742820E-01
5.183088E-01
-4.021639E-02
-6.955432E-02
5.639881E-01
5.481558E-01
-1.220928E-01
5.183088E-01
4.599405E-01
4.276598E-01
5.203755E-01
3.725691E-01
3.105297E-01
2.512275E-01
1.878975E-01
1.181817E-01
4.306742E-02
-1.364917E-02
-5.612076E-02
-9.549538E-02
-1.179959E-01
-1.480715E-01
1.818953E-02
1.461986E-01
7.991536E-02
2.142083E-01
2.874784E-01
3.295688E-01
4.202351E-01
5.008789E-01
4.549048E-01
5.381135E-01
-4.710194E-02
-1.076895E-01
5.596589E-01
5.723497E-01
-1.511115E-01
5.183088E-01
5.381135E-01
4.742820E-01
4.073316E-01
5.382493E-01
3.439429E-01
2.813733E-01
2.196996E-01
1.529514E-01
8.357517E-02
4.475541E-02
-4.021639E-02
-6.955432E-02
-1.220928E-01
-1.480715E-01
-1.771181E-01
4.097436E-02
-2.048838E-02
1.077691E-01
1.756535E-01
2.518414E-01
3.381828E-01
4.058644E-01
5.028097E-01
4.590729E-01
5.382493E-01
-8.825129E-02
-1.195009E-01
5.639881E-01
5.723497E-01
-1.858252E-01
5.381135E-01
5.008789E-01
5.481558E-01
4.549048E-01
4.202351E-01
5.526208E-01
3.295688E-01
2.874784E-01
2.142083E-01
1.461986E-01
7.991536E-02
1.818953E-02
-4.710194E-02
-1.076895E-01
-1.511115E-01
-1.771181E-01
-2.037390E-01
2.330647E-02
-4.031756E-02
1.036001E-01
1.490899E-01
2.582455E-01
3.729488E-01
3.024966E-01
4.318610E-01
4.803809E-01
5.203755E-01
5.526208E-01
-1.034903E-01
-1.542135E-01
-2.051394E-01
5.382493E-01
5.028097E-01
5.596589E-01
4.590729E-01
4.058644E-01
5.639881E-01
3.381828E-01
2.518414E-01
1.756535E-01
1.077691E-01
4.097436E-02
-2.048838E-02
-8.825129E-02
-1.195009E-01
-1.858252E-01
-2.037390E-01
-2.419740E-01
5.807847E-02
-1.930753E-02
-8.217011E-02
1.506609E-01
2.316854E-01
3.651133E-01
3.001431E-01
4.229716E-01
4.797664E-01
5.060052E-01
-1.439163E-01
-1.907350E-01
-2.465676E-01
5.526208E-01
5.203755E-01
4.803809E-01
5.639881E-01
4.318610E-01
3.729488E-01
5.723497E-01
3.024966E-01
2.582455E-01
1.490899E-01
1.036001E-01
2.330647E-02
-4.031756E-02
-1.034903E-01
-1.542135E-01
-2.051394E-01
-2.419740E-01
-2.654883E-01
5.700552E-02
-5.401782E-02
-9.598028E-02
1.882974E-01
1.040982E-01
2.599047E-01
3.279939E-01
3.891396E-01
4.495690E-01
-1.710728E-01
-2.206235E-01
-2.710675E-01
5.060052E-01
4.797664E-01
5.723497E-01
4.229716E-01
3.651133E-01
3.001431E-01
2.316854E-01
1.506609E-01
5.807847E-02
-1.930753E-02
-8.217011E-02
-1.439163E-01
-1.907350E-01
-2.465676E-01
-2.654883E-01
-3.030642E-01
2.229870E-02
-5.973072E-02
-1.444569E-01
1.718847E-01
9.557896E-02
2.433397E-01
3.225153E-01
3.625733E-01
-2.112585E-01
-2.595279E-01
-3.068245E-01
4.495690E-01
3.891396E-01
3.279939E-01
2.599047E-01
1.882974E-01
1.040982E-01
5.700552E-02
-5.401782E-02
-9.598028E-02
-1.710728E-01
-2.206235E-01
-2.710675E-01
-3.030642E-01
-3.318690E-01
4.844160E-02
-2.495527E-02
-1.100813E-01
-1.528450E-01
1.257290E-01
1.987077E-01
2.780995E-01
-2.488325E-01
-2.808784E-01
-3.393375E-01
3.625733E-01
3.225153E-01
2.433397E-01
1.718847E-01
9.557896E-02
2.229870E-02
-5.973072E-02
-1.444569E-01
-2.112585E-01
-2.595279E-01
-3.068245E-01
-3.318690E-01
-3.672689E-01
2.672242E-02
-4.744770E-02
-1.234703E-01
-1.904156E-01
1.162193E-01
1.639921E-01
-2.609609E-01
-3.249311E-01
-3.709772E-01
2.780995E-01
1.987077E-01
1.257290E-01
4.844160E-02
-2.495527E-02
-1.100813E-01
-1.528450E-01
-2.488325E-01
-2.808784E-01
-3.393375E-01
-3.672689E-01
-3.973026E-01
6.435013E-02
-2.191290E-02
-9.561210E-02
-1.703302E-01
-2.343416E-01
-3.074350E-01
-3.393592E-01
-4.056970E-01
1.639921E-01
1.162193E-01
2.672242E-02
-4.744770E-02
-1.234703E-01
-1.904156E-01
-2.609609E-01
-3.249311E-01
-3.709772E-01
-3.973026E-01
-4.229463E-01
-5.949230E-02
-1.077055E-01
-1.938976E-01
-2.594906E-01
-3.236568E-01
-3.740755E-01
-4.223975E-01
6.435013E-02
-2.191290E-02
-9.561210E-02
-1.703302E-01
-2.343416E-01
-3.074350E-01
-3.393592E-01
-4.056970E-01
-4.229463E-01
-4.558704E-01
-1.591310E-01
-2.391319E-01
-3.023317E-01
-3.631065E-01
-4.079877E-01
-4.579227E-01
-5.949230E-02
-1.077055E-01
-1.938976E-01
-2.594906E-01
-3.236568E-01
-3.740755E-01
-4.223975E-01
-4.558704E-01
-4.741462E-01
-2.738545E-01
-3.151684E-01
-3.849357E-01
-4.319674E-01
-4.745115E-01
-1.591310E-01
-2.391319E-01
-3.023317E-01
-3.631065E-01
-4.079877E-01
-4.579227E-01
-4.741462E-01
-5.007288E-01
-3.583225E-01
-4.198844E-01
-4.629661E-01
-5.005497E-01
-2.738545E-01
-3.151684E-01
-3.849357E-01
-4.319674E-01
-4.745115E-01
-5.007288E-01
-5.194676E-01
-4.464666E-01
-4.745940E-01
-5.173232E-01
-3.583225E-01
-4.198844E-01
-4.629661E-01
-5.005497E-01
-5.194676E-01
-5.386388E-01
-5.029130E-01
-5.366736E-01
-4.464666E-01
-4.745940E-01
-5.173232E-01
-5.386388E-01
-5.530880E-01
-5.510837E-01
-5.029130E-01
-5.366736E-01
-5.530880E-01
-5.617522E-01
-5.510837E-01
-5.617522E-01
-5.709866E-01
-5.709866E-01
